# vtk DataFile Version 3.0
HeatField
ASCII
DATASET STRUCTURED_POINTS
DIMENSIONS 1 1 1
ORIGIN 0 0 0
SPACING 0 0 1
POINT_DATA 1
SCALARS temperature double 1
LOOKUP_TABLE default
0
