# vtk DataFile Version 3.0
3D field
ASCII
DATASET STRUCTURED_POINTS
DIMENSIONS 65 65 65
ORIGIN 0 0 0
SPACING 0.015625 0.015625 0.015625
POINT_DATA 274625
SCALARS temperature double 1
LOOKUP_TABLE default
0
0
0
0
0
0
0
0
0
0
0
0
0
0
0
0
0
0
0
0
0
0
0
0
0
0
0
0
0
0
0
0
0
0
0
0
0
0
0
0
0
0
0
0
0
0
0
0
0
0
0
0
0
0
0
0
0
0
0
0
0
0
0
0
0
0
0
0
0
0
0
0
0
0
0
0
0
0
0
0
0
0
0
0
0
0
0
0
0
0
0
0
0
0
0
0
0
0
0
0
0
0
0
0
0
0
0
0
0
0
0
0
0
0
0
0
0
0
0
0
0
0
0
0
0
0
0
0
0
0
0
0
0
0
0
0
0
0
0
0
0
0
0
0
0
0
0
0
0
0
0
0
0
0
0
0
0
0
0
0
0
0
0
0
0
0
0
0
0
0
0
0
0
0
0
0
0
0
0
0
0
0
0
0
0
0
0
0
0
0
0
0
0
0
0
0
0
0
0
0
0
0
0
0
0
0
0
0
0
0
0
0
0
0
0
0
0
0
0
0
0
0
0
0
0
0
0
0
0
0
0
0
0
0
0
0
0
0
0
0
0
0
0
0
0
0
0
0
0
0
0
0
0
0
0
0
0
0
0
0
0
0
0
0
0
0
0
0
0
0
0
0
0
0
0
0
0
0
0
0
0
0
0
0
0
0
0
0
0
0
0
0
0
0
0
0
0
0
0
0
0
0
0
0
0
0
0
0
0
0
0
0
0
0
0
0
0
0
0
0
0
0
0
0
0
0
0
0
0
0
0
0
0
0
0
0
0
0
0
0
0
0
0
0
0
0
0
0
0
0
0
0
0
0
0
0
0
0
0
0
0
0
0
0
0
0
0
0
0
0
0
0
0
0
0
0
0
0
0
0
0
0
0
0
0
0
0
0
0
0
0
0
0
0
0
0
0
0
0
0
0
0
0
0
0
0
0
0
0
0
0
0
0
0
0
0
0
0
0
0
0
0
0
0
0
0
0
0
0
0
0
0
0
0
0
0
0
0
0
0
0
0
0
0
0
0
0
0
0
0
0
0
0
0
0
0
0
0
0
0
0
0
0
0
0
0
0
0
0
0
0
0
0
0
0
0
0
0
0
0
0
0
0
0
0
0
0
0
0
0
0
0
0
0
0
0
0
0
0
0
0
0
0
0
0
0
0
0
0
0
0
0
0
0
0
0
0
0
0
0
0
0
0
0
0
0
0
0
0
0
0
0
0
0
0
0
0
0
0
0
0
0
0
0
0
0
0
0
0
0
0
0
0
0
0
0
0
0
0
0
0
0
0
0
0
0
0
0
0
0
0
0
0
0
0
0
0
0
0
0
0
0
0
0
0
0
0
0
0
0
0
0
0
0
0
0
0
0
0
0
0
0
0
0
0
0
0
0
0
0
0
0
0
0
0
0
0
0
0
0
0
0
0
0
0
0
0
0
0
0
0
0
0
0
0
0
0
0
0
0
0
0
0
0
0
0
0
0
0
0
0
0
0
0
0
0
0
0
0
0
0
0
0
0
0
0
0
0
0
0
0
0
0
0
0
0
0
0
0
0
0
0
0
0
0
0
0
0
0
0
0
0
0
0
0
0
0
0
0
0
0
0
0
0
0
0
0
0
0
0
0
0
0
0
0
0
0
0
0
0
0
0
0
0
0
0
0
0
0
0
0
0
0
0
0
0
0
0
0
0
0
0
0
0
0
0
0
0
0
0
0
0
0
0
0
0
0
0
0
0
0
0
0
0
0
0
0
0
0
0
0
0
0
0
0
0
0
0
0
0
0
0
0
0
0
0
0
0
0
0
0
0
0
0
0
0
0
0
0
0
0
0
0
0
0
0
0
0
0
0
0
0
0
0
0
0
0
0
0
0
0
0
0
0
0
0
0
0
0
0
0
0
0
0
0
0
0
0
0
0
0
0
0
0
0
0
0
0
0
0
0
0
0
0
0
0
0
0
0
0
0
0
0
0
0
0
0
0
0
0
0
0
0
0
0
0
0
0
0
0
0
0
0
0
0
0
0
0
0
0
0
0
0
0
0
0
0
0
0
0
0
0
0
0
0
0
0
0
0
0
0
0
0
0
0
0
0
0
0
0
0
0
0
0
0
0
0
0
0
0
0
0
0
0
0
0
0
0
0
0
0
0
0
0
0
0
0
0
0
0
0
0
0
0
0
0
0
0
0
0
0
0
0
0
0
0
0
0
0
0
0
0
0
0
0
0
0
0
0
0
0
0
0
0
0
0
0
0
0
0
0
0
0
0
0
0
0
0
0
0
0
0
0
0
0
0
0
0
0
0
0
0
0
0
0
0
0
0
0
0
0
0
0
0
0
0
0
0
0
0
0
0
0
0
0
0
0
0
0
0
0
0
0
0
0
0
0
0
0
0
0
0
0
0
0
0
0
0
0
0
0
0
0
0
0
0
0
0
0
0
0
0
0
0
0
0
0
0
0
0
0
0
0
0
0
0
0
0
0
0
0
0
0
0
0
0
0
0
0
0
0
0
0
0
0
0
0
0
0
0
0
0
0
0
0
0
0
0
0
0
0
0
0
0
0
0
0
0
0
0
0
0
0
0
0
0
0
0
0
0
0
0
0
0
0
0
0
0
0
0
0
0
0
0
0
0
0
0
0
0
0
0
0
0
0
0
0
0
0
0
0
0
0
0
0
0
0
0
0
0
0
0
0
0
0
0
0
0
0
0
0
0
0
0
0
0
0
0
0
0
0
0
0
0
0
0
0
0
0
0
0
0
0
0
0
0
0
0
0
0
0
0
0
0
0
0
0
0
0
0
0
0
0
0
0
0
0
0
0
0
0
0
0
0
0
0
0
0
0
0
0
0
0
0
0
0
0
0
0
0
0
0
0
0
0
0
0
0
0
0
0
0
0
0
0
0
0
0
0
0
0
0
0
0
0
0
0
0
0
0
0
0
0
0
0
0
0
0
0
0
0
0
0
0
0
0
0
0
0
0
0
0
0
0
0
0
0
0
0
0
0
0
0
0
0
0
0
0
0
0
0
0
0
0
0
0
0
0
0
0
0
0
0
0
0
0
0
0
0
0
0
0
0
0
0
0
0
0
0
0
0
0
0
0
0
0
0
0
0
0
0
0
0
0
0
0
0
0
0
0
0
0
0
0
0
0
0
0
0
0
0
0
0
0
0
0
0
0
0
0
0
0
0
0
0
0
0
0
0
0
0
0
0
0
0
0
0
0
0
0
0
0
0
0
0
0
0
0
0
0
0
0
0
0
0
0
0
0
0
0
0
0
0
0
0
0
0
0
0
0
0
0
0
0
0
0
0
0
0
0
0
0
0
0
0
0
0
0
0
0
0
0
0
0
0
0
0
0
0
0
0
0
0
0
0
0
0
0
0
0
0
0
0
0
0
0
0
0
0
0
0
0
0
0
0
0
0
0
0
0
0
0
0
0
0
0
0
0
0
0
0
0
0
0
0
0
0
0
0
0
0
0
0
0
0
0
0
0
0
0
0
0
0
0
0
0
0
0
0
0
0
0
0
0
0
0
0
0
0
0
0
0
0
0
0
0
0
0
0
0
0
0
0
0
0
0
0
0
0
0
0
0
0
0
0
0
0
0
0
0
0
0
0
0
0
0
0
0
0
0
0
0
0
0
0
0
0
0
0
0
0
0
0
0
0
0
0
0
0
0
0
0
0
0
0
0
0
0
0
0
0
0
0
0
0
0
0
0
0
0
0
0
0
0
0
0
0
0
0
0
0
0
0
0
0
0
0
0
0
0
0
0
0
0
0
0
0
0
0
0
0
0
0
0
0
0
0
0
0
0
0
0
0
0
0
0
0
0
0
0
0
0
0
0
0
0
0
0
0
0
0
0
0
0
0
0
0
0
0
0
0
0
0
0
0
0
0
0
0
0
0
0
0
0
0
0
0
0
0
0
0
0
0
0
0
0
0
0
0
0
0
0
0
0
0
0
0
0
0
0
0
0
0
0
0
0
0
0
0
0
0
0
0
0
0
0
0
0
0
0
0
0
0
0
0
0
0
0
0
0
0
0
0
0
0
0
0
0
0
0
0
0
0
0
0
0
0
0
0
0
0
0
0
0
0
0
0
0
0
0
0
0
0
0
0
0
0
0
0
0
0
0
0
0
0
0
0
0
0
0
0
0
0
0
0
0
0
0
0
0
0
0
0
0
0
0
0
0
0
0
0
0
0
0
0
0
0
0
0
0
0
0
0
0
0
0
0
0
0
0
0
0
0
0
0
0
0
0
0
0
0
0
0
0
0
0
0
0
0
0
0
0
0
0
0
0
0
0
0
0
0
0
0
0
0
0
0
0
0
0
0
0
0
0
0
0
0
0
0
0
0
0
0
0
0
0
0
0
0
0
0
0
0
0
0
0
0
0
0
0
0
0
0
0
0
0
0
0
0
0
0
0
0
0
0
0
0
0
0
0
0
0
0
0
0
0
0
0
0
0
0
0
0
0
0
0
0
0
0
0
0
0
0
0
0
0
0
0
0
0
0
0
0
0
0
0
0
0
0
0
0
0
0
0
0
0
0
0
0
0
0
0
0
0
0
0
0
0
0
0
0
0
0
0
0
0
0
0
0
0
0
0
0
0
0
0
0
0
0
0
0
0
0
0
0
0
0
0
0
0
0
0
0
0
0
0
0
0
0
0
0
0
0
0
0
0
0
0
0
0
0
0
0
0
0
0
0
0
0
0
0
0
0
0
0
0
0
0
0
0
0
0
0
0
0
0
0
0
0
0
0
0
0
0
0
0
0
0
0
0
0
0
0
0
0
0
0
0
0
0
0
0
0
0
0
0
0
0
0
0
0
0
0
0
0
0
0
0
0
0
0
0
0
0
0
0
0
0
0
0
0
0
0
0
0
0
0
0
0
0
0
0
0
0
0
0
0
0
0
0
0
0
0
0
0
0
0
0
0
0
0
0
0
0
0
0
0
0
0
0
0
0
0
0
0
0
0
0
0
0
0
0
0
0
0
0
0
0
0
0
0
0
0
0
0
0
0
0
0
0
0
0
0
0
0
0
0
0
0
0
0
0
0
0
0
0
0
0
0
0
0
0
0
0
0
0
0
0
0
0
0
0
0
0
0
0
0
0
0
0
0
0
0
0
0
0
0
0
0
0
0
0
0
0
0
0
0
0
0
0
0
0
0
0
0
0
0
0
0
0
0
0
0
0
0
0
0
0
0
0
0
0
0
0
0
0
0
0
0
0
0
0
0
0
0
0
0
0
0
0
0
0
0
0
0
0
0
0
0
0
0
0
0
0
0
0
0
0
0
0
0
0
0
0
0
0
0
0
0
0
0
0
0
0
0
0
0
0
0
0
0
0
0
0
0
0
0
0
0
0
0
0
0
0
0
0
0
0
0
0
0
0
0
0
0
0
0
0
0
0
0
0
0
0
0
0
0
0
0
0
0
0
0
0
0
0
0
0
0
0
0
0
0
0
0
0
0
0
0
0
0
0
0
0
0
0
0
0
0
0
0
0
0
0
0
0
0
0
0
0
0
0
0
0
0
0
0
0
0
0
0
0
0
0
0
0
0
0
0
0
0
0
0
0
0
0
0
0
0
0
0
0
0
0
0
0
0
0
0
0
0
0
0
0
0
0
0
0
0
0
0
0
0
0
0
0
0
0
0
0
0
0
0
0
0
0
0
0
0
0
0
0
0
0
0
0
0
0
0
0
0
0
0
0
0
0
0
0
0
0
0
0
0
0
0
0
0
0
0
0
0
0
0
0
0
0
0
0
0
0
0
0
0
0
0
0
0
0
0
0
0
0
0
0
0
0
0
0
0
0
0
0
0
0
0
0
0
0
0
0
0
0
0
0
0
0
0
0
0
0
0
0
0
0
0
0
0
0
0
0
0
0
0
0
0
0
0
0
0
0
0
0
0
0
0
0
0
0
0
0
0
0
0
0
0
0
0
0
0
0
0
0
0
0
0
0
0
0
0
0
0
0
0
0
0
0
0
0
0
0
0
0
0
0
0
0
0
0
0
0
0
0
0
0
0
0
0
0
0
0
0
0
0
0
0
0
0
0
0
0
0
0
0
0
0
0
0
0
0
0
0
0
0
0
0
0
0
0
0
0
0
0
0
0
0
0
0
0
0
0
0
0
0
0
0
0
0
0
0
0
0
0
0
0
0
0
0
0
0
0
0
0
0
0
0
0
0
0
0
0
0
0
0
0
0
0
0
0
0
0
0
0
0
0
0
0
0
0
0
0
0
0
0
0
0
0
0
0
0
0
0
0
0
0
0
0
0
0
0
0
0
0
0
0
0
0
0
0
0
0
0
0
0
0
0
0
0
0
0
0
0
0
0
0
0
0
0
0
0
0
0
0
0
0
0
0
0
0
0
0
0
0
0
0
0
0
0
0
0
0
0
0
0
0
0
0
0
0
0
0
0
0
0
0
0
0
0
0
0
0
0
0
0
0
0
0
0
0
0
0
0
0
0
0
0
0
0
0
0
0
0
0
0
0
0
0
0
0
0
0
0
0
0
0
0
0
0
0
0
0
0
0
0
0
0
0
0
0
0
0
0
0
0
0
0
0
0
0
0
0
0
0
0
0
0
0
0
0
0
0
0
0
0
0
0
0
0
0
0
0
0
0
0
0
0
0
0
0
0
0
0
0
0
0
0
0
0
0
0
0
0
0
0
0
0
0
0
0
0
0
0
0
0
0
0
0
0
0
0
0
0
0
0
0
0
0
0
0
0
0
0
0
0
0
0
0
0
0
0
0
0
0
0
0
0
0
0
0
0
0
0
0
0
0
0
0
0
0
0
0
0
0
0
0
0
0
0
0
0
0
0
0
0
0
0
0
0
0
0
0
0
0
0
0
0
0
0
0
0
0
0
0
0
0
0
0
0
0
0
0
0
0
0
0
0
0
0
0
0
0
0
0
0
0
0
0
0
0
0
0
0
0
0
0
0
0
0
0
0
0
0
0
0
0
0
0
0
0
0
0
0
0
0
0
0
0
0
0
0
0
0
0
0
0
0
0
0
0
0
0
0
0
0
0
0
0
0
0
0
0
0
0
0
0
0
0
0
0
0
0
0
0
0
0
0
0
0
0
0
0
0
0
0
0
0
0
0
0
0
0
0
0
0
0
0
0
0
0
0
0
0
0
0
0
0
0
0
0
0
0
0
0
0
0
0
0
0
0
0
0
0
0
0
0
0
0
0
0
0
0
0
0
0
0
0
0
0
0
0
0
0
0
0
0
0
0
0
0
0
0
0
0
0
0
0
0
0
0
0
0
0
0
0
0
0
0
0
0
0
0
0
0
0
0
0
0
0
0
0
0
0
0
0
0
0
0
0
0
0
0
0
0
0
0
0
0
0
0
0
0
0
0
0
0
0
0
0
0
0
0
0
0
0
0
0
0
0
0
0
0
0
0
0
0
0
0
0
0
0
0
0
0
0
0
0
0
0
0
0
0
0
0
0
0
0
0
0
0
0
0
0
0
0
0
0
0
0
0
0
0
0
0
0
0
0
0
0
0
0
0
0
0
0
0
0
0
0
0
0
0
0
0
0
0
0
0
0
0
0
0
0
0
0
0
0
0
0
0
0
0
0
0
0
0
0
0
0
0
0
0
0
0
0
0
0
0
0
0
0
0
0
0
0
0
0
0
0
0
0
0
0
0
0
0
0
0
0
0
0
0
0
0
0
0
0
0
0
0
0
0
0
0
0
0
0
0
0
0
0
0
0
0
0
0
0
0
0
0
0
0
0
0
0
0
0
0
0
0
0
0
0
0
0
0
0
0
0
0
0
0
0
0
0
0
0
0
0
0
0
0
0
0
0
0
0
0
0
0
0
0
0
0
0
0
0
0
0
0
0
0
0
0
0
0
0
0
0
0
0
0
0
0
0
0
0
0
0
0
0
0
0
0
0
0
0
0
0
0
0
0
0
0
0
0
0
0
0
0
0
0
0
0
0
0
0
0
0
0
0
0
0
0
0
0
0
0
0
0
0
0
0
0
0
0
0
0
0
0
0
0
0
0
0
0
0
0
0
0
0
0
0
0
0
0
0
0
0
0
0
0
0
0
0
0
0
0
0
0
0
0
0
0
0
0
0
0
0
0
0
0
0
0
0
0
0
0
0
0
0
0
0
0
0
0
0
0
0
0
0
0
0
0
0
0
0
0
0
0
0
0
0
0
0
0
0
0
0
0
0
0
0
0
0
0
0
0
0
0
0
0
0
0
0
0
0
0
0
0
0
0
0
0
0
0
0
0
0
0
0
0
0
0
0
0
0
0
0
0
0
0
0
0
0
0
0
0
0
0
0
0
0
0
0
0
0
0
0
0
0
0
0
0
0
0
0
0
0
0
0
0
0
0
0
0
0
0
0
0
0
0
0
0
0
0
0
0
0
0
0
0
0
0
0
0
0
0
0
0
0
0
0
0
0
0
0
0
0
0
0
0
0
0
0
0
0
0
0
0
0
0
0
0
0
0
0
0
0
0
0
0
0
0
0
0
0
0
0
0
0
0
0
0
0
0
0
0
0
0
0
0
0
0
0
0
0
0
0
0
0
0
0
0
0
0
0
0
0
0
0
0
0
0
0
0
0
0
0
0
0
0
0
0
0
0
0
0
0
0
0
0
0
0
0
0
0
0
0
0
0
0
0
0
0
0
0
0
0
0
0
0
0
0
0
0
0
0
0
0
0
0
0
0
0
0
0
0
0
0
0
0
0
0
0
0
0
0
0
0
0
0
0
0
0
0
0
0
0
0
0
0
0
0
0
0
0
0
0
0
0
0
0
0
0
0
0
0
0
0
0
0
0
0
0
0
0
0
0
0
0
0
0
0
0
0
0
0
0
0
0
0
0
0
0
0
0
0
0
0
0
0
0
0
0
0
0
0
0
0
0
0
0
0
0
0
0
0
0
0
0
0
0
0
0
0
0
0
0
0
0
0
0
0
0
0
0
0
0
0
0
0
0
0
0
0
0
0
0
0
0
0
0
0
0
0
0
0
0
0
0
0
0
0
0
0
0
0
0
0
0
0
0
0
0
0
0
0
0
0
0
0
0
0
0
0
0
0
0
0
0
0
0
0
0
0
0
0
0
0
0
0
0
0
0
0
0
0
0
0
0
0
0
0
0
0
0
0
0
0
0
0
0
0
0
0
0
0
0
0
0
0
0
0
0
0
0
0
0
0
0
0
0
0
0
0
0
0
0
0
0
0
0
0
0
0
0
0
0
0
0
0
0
0
0
0
0
0
0
0
0
0
0
0
0
0
0
0
0
0
0
0
0
0
0
0
0
0
0
0
0
0
0
0
0
0
0
0
0
0
0
0
0
0
0
0
0
0
0
0
0
0
0
0
0
0
0
0
0
0
0
0
0
0
0
0
0
0
0
0
0
0
0
0
0
0
0
0
0
0
0
0
0
0
0
0
0
0
0
0
0
0
0
0
0
0
0
0
0
0
0
0
0
0
0
0
0
0
0
0
0
0
0
0
0
0
0
0
0
0
0
0
0
0
0
0
0
0
0
0
0
0
0
0
0
0
0
0
0
0
0
0
0
0
0
0
0
0
0
0
0
0
0
0
0
0
0
0
0
0
0
0
0
0
0
0
0
0
0
0
0
0
0
0
0
0
0
0
0
0
0
0
0
0
0
0
0
0
0
0
0
0
0
0
0
0
0
0
0
0
0
0
0
8.34386e-05
0.000168954
0.000256076
0.000344328
0.000433234
0.000522332
0.00061118
0.000699361
0.000786486
0.000872197
0.000956166
0.0010381
0.00111771
0.00119477
0.00126903
0.0013403
0.00140838
0.00147309
0.00153427
0.00159176
0.00164542
0.00169512
0.00174074
0.00178216
0.0018193
0.00185205
0.00188034
0.0019041
0.00192327
0.00193781
0.00194768
0.00195286
0.00195333
0.0019491
0.00194017
0.00192657
0.00190833
0.00188549
0.0018581
0.00182624
0.00178998
0.00174941
0.00170463
0.00165573
0.00160284
0.00154609
0.0014856
0.00142151
0.00135398
0.00128313
0.00120914
0.00113212
0.00105223
0.000969584
0.000884292
0.000796435
0.00070607
0.000613217
0.000517859
0.000419936
0.000319348
0.000215953
0.000109574
0
0
0.000166676
0.000337501
0.000511535
0.000687826
0.000865424
0.00104341
0.00122089
0.00139704
0.00157108
0.00174229
0.00191003
0.00207369
0.00223273
0.00238665
0.00253501
0.00267737
0.00281337
0.00294263
0.00306484
0.00317968
0.00328687
0.00338616
0.00347728
0.00356003
0.00363421
0.00369963
0.00375614
0.00380361
0.0038419
0.00387095
0.00389066
0.00390101
0.00390195
0.0038935
0.00387567
0.0038485
0.00381205
0.00376643
0.00371173
0.00364809
0.00357566
0.00349461
0.00340515
0.00330747
0.00320182
0.00308845
0.00296762
0.0028396
0.00270469
0.00256318
0.00241536
0.00226152
0.00210193
0.00193683
0.00176645
0.00159095
0.00141044
0.00122496
0.00103447
0.00083886
0.000637927
0.000431386
0.000218883
0
0
0.000249512
0.000505235
0.000765762
0.00102967
0.00129553
0.00156197
0.00182765
0.00209135
0.00235188
0.00260819
0.00285929
0.00310429
0.00334237
0.00357279
0.00379487
0.00400799
0.00421157
0.00440508
0.00458803
0.00475994
0.00492041
0.00506903
0.00520545
0.00532933
0.00544037
0.00553831
0.0056229
0.00569395
0.00575128
0.00579476
0.00582428
0.00583976
0.00584118
0.00582852
0.00580183
0.00576115
0.0057066
0.0056383
0.00555641
0.00546114
0.00535272
0.00523139
0.00509746
0.00495124
0.00479309
0.00462337
0.00444249
0.00425085
0.00404889
0.00383705
0.00361576
0.00338546
0.00314656
0.00289942
0.00264436
0.00238164
0.00211141
0.00183375
0.00154859
0.00125576
0.000954968
0.00064578
0.000327666
0
0
0.000331747
0.000671752
0.00101814
0.00136903
0.00172251
0.00207676
0.00243002
0.00278062
0.00312702
0.0034678
0.00380166
0.00412741
0.00444396
0.00475032
0.0050456
0.00532896
0.00559964
0.00585692
0.00610016
0.00632874
0.00654209
0.0067397
0.00692108
0.00708578
0.00723342
0.00736364
0.00747611
0.00757058
0.00764681
0.00770461
0.00774386
0.00776445
0.00776633
0.0077495
0.00771401
0.00765993
0.0075874
0.00749658
0.00738771
0.00726104
0.00711688
0.00695557
0.0067775
0.00658309
0.00637281
0.00614716
0.00590665
0.00565185
0.00538333
0.00510167
0.00480745
0.00450125
0.00418361
0.00385501
0.00351589
0.00316658
0.0028073
0.00243812
0.00205898
0.00166964
0.00126971
0.000858618
0.000435658
0
0
0.000413183
0.00083665
0.00126807
0.00170509
0.00214535
0.00258656
0.00302653
0.00346319
0.00389463
0.00431907
0.00473488
0.00514058
0.00553484
0.00591641
0.00628417
0.00663709
0.00697421
0.00729465
0.0075976
0.00788229
0.00814802
0.00839413
0.00862003
0.00882517
0.00900905
0.00917123
0.00931132
0.00942897
0.00952391
0.0095959
0.00964478
0.00967043
0.00967277
0.00965182
0.00960761
0.00954025
0.00944991
0.00933681
0.00920121
0.00904345
0.0088639
0.00866299
0.0084412
0.00819908
0.00793718
0.00765613
0.00735659
0.00703925
0.00670481
0.00635401
0.00598757
0.0056062
0.00521058
0.00480132
0.00437896
0.0039439
0.00349642
0.00303661
0.0025644
0.0020795
0.00158139
0.00106939
0.000542602
0
0
0.000493623
0.000999533
0.00151495
0.00203704
0.00256301
0.00309012
0.00361575
0.00413742
0.00465285
0.00515992
0.00565668
0.00614138
0.00661239
0.00706824
0.0075076
0.00792923
0.00833198
0.00871481
0.00907673
0.00941685
0.00973431
0.0100283
0.0102982
0.0105433
0.010763
0.0109567
0.0111241
0.0112646
0.0113781
0.0114641
0.0115225
0.0115531
0.0115559
0.0115309
0.0114781
0.0113976
0.0112897
0.0111545
0.0109925
0.0108041
0.0105896
0.0103495
0.0100846
0.00979531
0.00948243
0.00914666
0.00878881
0.00840968
0.00801013
0.00759103
0.00715325
0.00669764
0.006225
0.00573607
0.00523148
0.00471172
0.00417712
0.0036278
0.00306365
0.00248434
0.00188926
0.00127758
0.000648238
0
0
0.000572874
0.00116001
0.00175817
0.00236409
0.0029745
0.00358624
0.00419625
0.00480169
0.00539987
0.00598835
0.00656487
0.00712737
0.007674
0.00820305
0.00871295
0.00920226
0.00966968
0.010114
0.010534
0.0109287
0.0112972
0.0116384
0.0119516
0.012236
0.012491
0.0127158
0.0129101
0.0130732
0.0132048
0.0133046
0.0133724
0.013408
0.0134112
0.0133822
0.0133209
0.0132275
0.0131022
0.0129454
0.0127574
0.0125387
0.0122897
0.0120112
0.0117037
0.0113679
0.0110048
0.0106152
0.0101998
0.00975985
0.00929616
0.00880977
0.00830171
0.00777294
0.00722442
0.00665699
0.00607139
0.00546818
0.00484775
0.00421024
0.00355552
0.0028832
0.00219259
0.0014827
0.000752313
0
0
0.000650745
0.00131769
0.00199716
0.00268544
0.00337883
0.00407372
0.00476665
0.00545438
0.00613388
0.00680234
0.00745723
0.0080962
0.00871714
0.00931809
0.0098973
0.0104531
0.0109841
0.0114888
0.0119659
0.0124143
0.0128328
0.0132204
0.0135762
0.0138993
0.0141889
0.0144443
0.0146649
0.0148502
0.0149998
0.0151131
0.0151901
0.0152305
0.0152342
0.0152012
0.0151316
0.0150255
0.0148832
0.0147051
0.0144915
0.014243
0.0139603
0.0136438
0.0132945
0.0129132
0.0125007
0.0120581
0.0115863
0.0110865
0.0105598
0.0100073
0.00943016
0.00882952
0.00820644
0.00756188
0.00689667
0.00621147
0.00550671
0.00478254
0.00403883
0.00327512
0.00249063
0.00168424
0.000854575
0
0
0.000727048
0.00147219
0.00223134
0.00300033
0.00377502
0.00455138
0.00532557
0.00609394
0.0068531
0.00759995
0.00833163
0.00904552
0.00973927
0.0104107
0.0110578
0.0116788
0.012272
0.0128359
0.013369
0.0138699
0.0143375
0.0147706
0.0151681
0.015529
0.0158526
0.016138
0.0163845
0.0165915
0.0167586
0.0168852
0.0169712
0.0170164
0.0170205
0.0169836
0.0169058
0.0167873
0.0166283
0.0164293
0.0161907
0.0159131
0.0155972
0.0152437
0.0148534
0.0144273
0.0139665
0.013472
0.0129449
0.0123865
0.011798
0.0111807
0.0105359
0.00986483
0.00916869
0.00844855
0.00770535
0.0069398
0.0061524
0.00534332
0.0045124
0.00365914
0.00278266
0.00188173
0.000954778
0
0
0.0008016
0.00162315
0.00246014
0.00330798
0.00416211
0.00501808
0.00587165
0.00671881
0.00755582
0.00837926
0.00918596
0.00997306
0.0107379
0.0114782
0.0121917
0.0128764
0.0135304
0.0141521
0.0147398
0.0152921
0.0158077
0.0162851
0.0167234
0.0171214
0.0174781
0.0177928
0.0180645
0.0182928
0.018477
0.0186167
0.0187115
0.0187612
0.0187658
0.0187251
0.0186394
0.0185087
0.0183334
0.018114
0.0178509
0.0175449
0.0171965
0.0168067
0.0163765
0.0159067
0.0153986
0.0148534
0.0142722
0.0136566
0.0130077
0.0123272
0.0116163
0.0108764
0.0101089
0.00931487
0.00849545
0.00765141
0.00678327
0.00589122
0.00497511
0.00403435
0.003068
0.00207468
0.00105268
0
0
0.000874221
0.0017702
0.00268302
0.00360767
0.00453917
0.00547269
0.00640359
0.0073275
0.00824034
0.00913837
0.0100182
0.0108766
0.0117107
0.0125181
0.0132962
0.0140429
0.0147562
0.0154342
0.0160752
0.0166775
0.0172397
0.0177605
0.0182384
0.0186725
0.0190615
0.0194047
0.0197011
0.01995
0.0201509
0.0203032
0.0204066
0.0204609
0.0204659
0.0204215
0.020328
0.0201855
0.0199943
0.019755
0.0194681
0.0191343
0.0187544
0.0183293
0.0178601
0.0173478
0.0167937
0.016199
0.0155652
0.0148938
0.0141862
0.0134439
0.0126686
0.0118617
0.0110247
0.0101587
0.0092651
0.00834459
0.00739779
0.00642493
0.00542582
0.00439985
0.00334594
0.00226263
0.00114805
0
0
0.000944736
0.00191299
0.00289943
0.00389866
0.0049053
0.00591412
0.00692011
0.00791853
0.00890501
0.00987547
0.0108262
0.0117539
0.0126553
0.0135278
0.0143687
0.0151756
0.0159464
0.0166791
0.0173718
0.0180227
0.0186303
0.019193
0.0197096
0.0201786
0.020599
0.0209699
0.0212902
0.0215592
0.0217763
0.0219409
0.0220526
0.0221113
0.0221166
0.0220687
0.0219676
0.0218136
0.0216071
0.0213485
0.0210384
0.0206777
0.0202672
0.0198078
0.0193007
0.0187471
0.0181482
0.0175056
0.0168207
0.0160951
0.0153304
0.0145283
0.0136905
0.0128185
0.0119139
0.0109781
0.0100124
0.00901766
0.0079945
0.00694317
0.00586347
0.00475474
0.00361583
0.00244514
0.00124065
0
0
0.00101297
0.00205116
0.00310886
0.00418026
0.00525961
0.0063413
0.00741995
0.00849049
0.00954822
0.0105888
0.0116082
0.0126028
0.0135694
0.0145049
0.0154065
0.0162717
0.0170982
0.0178838
0.0186266
0.0193245
0.019976
0.0205794
0.0211332
0.0216361
0.0220869
0.0224845
0.022828
0.0231164
0.0233492
0.0235257
0.0236455
0.0237084
0.0237141
0.0236628
0.0235544
0.0233892
0.0231678
0.0228905
0.022558
0.0221713
0.0217311
0.0212385
0.0206948
0.0201012
0.0194591
0.0187701
0.0180357
0.0172577
0.0164378
0.0155777
0.0146793
0.0137444
0.0127745
0.0117711
0.0107356
0.00966901
0.00857195
0.00744468
0.00628699
0.00509817
0.003877
0.00262175
0.00133026
0
0
0.00107877
0.0021844
0.0033108
0.00445179
0.00560125
0.0067532
0.00790191
0.009042
0.0101684
0.0112766
0.0123622
0.0134215
0.0144508
0.0154471
0.0164072
0.0173287
0.0182089
0.0190455
0.0198365
0.0205797
0.0212735
0.0219161
0.0225059
0.0230415
0.0235216
0.023945
0.0243108
0.024618
0.0248658
0.0250538
0.0251814
0.0252484
0.0252545
0.0251998
0.0250844
0.0249085
0.0246726
0.0243773
0.0240233
0.0236114
0.0231426
0.0226181
0.022039
0.0214068
0.0207231
0.0199893
0.0192072
0.0183787
0.0175055
0.0165896
0.0156328
0.0146371
0.0136042
0.0125357
0.011433
0.0102971
0.00912874
0.00792825
0.00669537
0.00542933
0.00412883
0.00279205
0.00141667
0
0
0.00114197
0.00231237
0.00350476
0.0047126
0.0059294
0.00714884
0.00836484
0.00957172
0.0107641
0.0119372
0.0130865
0.0142078
0.0152974
0.016352
0.0173685
0.0183439
0.0192756
0.0201613
0.0209986
0.0217854
0.0225198
0.0232001
0.0238244
0.0243914
0.0248996
0.0253478
0.025735
0.0260602
0.0263226
0.0265216
0.0266567
0.0267275
0.026734
0.0266761
0.0265539
0.0263678
0.0261181
0.0258055
0.0254307
0.0249947
0.0244984
0.0239431
0.0233302
0.022661
0.0219371
0.0211603
0.0203325
0.0194554
0.018531
0.0175615
0.0165487
0.0154947
0.0144012
0.0132701
0.0121028
0.0109003
0.00966355
0.00839272
0.00708761
0.0057474
0.00437072
0.00295562
0.00149967
0
0
0.00120242
0.00243477
0.00369028
0.00496205
0.00624326
0.00752725
0.00880762
0.0100784
0.0113339
0.0125691
0.0137792
0.0149598
0.0161072
0.0172176
0.0182878
0.0193149
0.0202959
0.0212285
0.0221101
0.0229386
0.0237119
0.0244281
0.0250855
0.0256825
0.0262176
0.0266896
0.0270973
0.0274396
0.0277159
0.0279254
0.0280677
0.0281423
0.0281491
0.0280882
0.0279595
0.0277635
0.0275006
0.0271714
0.0267768
0.0263177
0.0257952
0.0252105
0.0245651
0.0238605
0.0230983
0.0222804
0.0214087
0.0204852
0.0195119
0.0184911
0.0174247
0.0163148
0.0151635
0.0139725
0.0127434
0.0114773
0.0101751
0.00883698
0.00746278
0.00605163
0.00460207
0.00311207
0.00157905
0
0
0.00125997
0.00255131
0.0038669
0.00519955
0.00654209
0.00788752
0.00922918
0.0105608
0.0118764
0.0131707
0.0144387
0.0156759
0.0168781
0.0180417
0.0191631
0.0202393
0.0212674
0.0222445
0.0231684
0.0240365
0.0248468
0.0255973
0.0262862
0.0269117
0.0274725
0.027967
0.0283942
0.028753
0.0290425
0.029262
0.0294111
0.0294893
0.0294964
0.0294325
0.0292977
0.0290923
0.0288169
0.028472
0.0280585
0.0275774
0.0270298
0.0264172
0.0257409
0.0250025
0.0242039
0.0233468
0.0224334
0.0214657
0.0204458
0.0193761
0.0182587
0.0170957
0.0158893
0.0146413
0.0133533
0.0120266
0.0106621
0.00925994
0.00781997
0.00634128
0.00482234
0.00326102
0.00165463
0
0
0.00131449
0.0026617
0.00403422
0.00542453
0.00682515
0.0082288
0.00962851
0.0110177
0.0123903
0.0137406
0.0150634
0.0163541
0.0176084
0.0188223
0.0199923
0.0211151
0.0221876
0.023207
0.0241708
0.0250765
0.0259219
0.0267049
0.0274235
0.0280762
0.0286612
0.0291771
0.0296228
0.0299971
0.0302991
0.0305282
0.0306837
0.0307652
0.0307727
0.030706
0.0305654
0.0303511
0.0300637
0.0297039
0.0292725
0.0287706
0.0281994
0.0275602
0.0268546
0.0260843
0.0252511
0.024357
0.0234041
0.0223945
0.0213305
0.0202145
0.0190487
0.0178354
0.0165768
0.0152748
0.0139311
0.012547
0.0111234
0.0096606
0.00815833
0.00661565
0.005031
0.00340212
0.00172622
0
0
0.00136584
0.00276567
0.00419181
0.00563643
0.00709177
0.00855025
0.0100046
0.0114481
0.0128743
0.0142773
0.0156518
0.016993
0.0182962
0.0195576
0.0207733
0.0219399
0.0230543
0.0241136
0.025115
0.0260561
0.0269345
0.0277481
0.0284948
0.0291729
0.0297808
0.0303169
0.03078
0.0311689
0.0314827
0.0317207
0.0318823
0.0319671
0.0319748
0.0319055
0.0317594
0.0315367
0.0312381
0.0308642
0.030416
0.0298945
0.029301
0.0286368
0.0279037
0.0271033
0.0262375
0.0253085
0.0243183
0.0232693
0.0221638
0.0210041
0.0197928
0.0185321
0.0172244
0.0158715
0.0144753
0.0130372
0.0115579
0.010038
0.00847703
0.00687409
0.00522753
0.00353502
0.00179365
0
0
0.0014139
0.00286299
0.0043393
0.00583476
0.0073413
0.00885111
0.0103567
0.0118509
0.0133273
0.0147797
0.0162026
0.0175909
0.01894
0.0202457
0.0215042
0.0227119
0.0238655
0.024962
0.0259987
0.0269729
0.0278822
0.0287244
0.0294974
0.0301994
0.0308287
0.0313836
0.031863
0.0322656
0.0325905
0.0328369
0.0330041
0.0330919
0.0330999
0.0330282
0.0328769
0.0326464
0.0323373
0.0319503
0.0314862
0.0309464
0.030332
0.0296445
0.0288855
0.028057
0.0271608
0.026199
0.025174
0.0240881
0.0229436
0.0217432
0.0204892
0.0191842
0.0178304
0.01643
0.0149846
0.0134959
0.0119646
0.0103912
0.0087753
0.00711597
0.00541147
0.00365941
0.00185676
0
0
0.00145855
0.0029534
0.00447635
0.00601903
0.00757315
0.00913064
0.0106837
0.0122252
0.0137482
0.0152465
0.0167143
0.0181464
0.0195382
0.0208851
0.0221833
0.0234292
0.0246192
0.0257504
0.0268198
0.0278248
0.0287628
0.0296316
0.030429
0.0311532
0.0318023
0.0323748
0.0328693
0.0332846
0.0336197
0.0338739
0.0340464
0.034137
0.0341452
0.0340713
0.0339152
0.0336774
0.0333585
0.0329593
0.0324806
0.0319237
0.0312899
0.0305807
0.0297978
0.028943
0.0280185
0.0270264
0.025969
0.0248488
0.0236682
0.0224299
0.0211363
0.0197901
0.0183935
0.0169488
0.0154579
0.0139221
0.0123425
0.0107194
0.00905244
0.0073407
0.00558237
0.00377498
0.0019154
0
0
0.00149969
0.00303671
0.0046026
0.0061888
0.00778676
0.00938817
0.0109851
0.01257
0.014136
0.0156765
0.0171857
0.0186583
0.0200893
0.0214742
0.022809
0.02409
0.0253136
0.0264767
0.0275763
0.0286096
0.0295741
0.0304674
0.0312873
0.0320319
0.0326993
0.0332879
0.0337964
0.0342234
0.034568
0.0348293
0.0350067
0.0350998
0.0351083
0.0350323
0.0348718
0.0346273
0.0342994
0.0338889
0.0333968
0.0328241
0.0321724
0.0314432
0.0306382
0.0297594
0.0288088
0.0277887
0.0267015
0.0255497
0.0243358
0.0230625
0.0217325
0.0203483
0.0189123
0.0174269
0.0158939
0.0143148
0.0126906
0.0110217
0.00930777
0.00754775
0.00573982
0.00388145
0.00196943
0
0
0.00153721
0.00311269
0.00471777
0.00634366
0.0079816
0.00962309
0.01126
0.0128845
0.0144897
0.0160688
0.0176158
0.0191252
0.0205919
0.0220116
0.0233798
0.0246928
0.025947
0.0271392
0.0282663
0.0293255
0.0303141
0.0312297
0.0320702
0.0328334
0.0335175
0.0341209
0.0346421
0.0350798
0.035433
0.0357009
0.0358827
0.0359781
0.0359868
0.0359089
0.0357444
0.0354938
0.0351577
0.0347369
0.0342324
0.0336455
0.0329775
0.03223
0.0314049
0.0305041
0.0295297
0.0284841
0.0273696
0.026189
0.0249447
0.0236396
0.0222763
0.0208574
0.0193856
0.017863
0.0162916
0.014673
0.0130082
0.0112975
0.00954067
0.00773661
0.00588345
0.00397858
0.00201871
0
0
0.00157104
0.00318118
0.00482158
0.00648323
0.00815722
0.00983482
0.0115077
0.013168
0.0148085
0.0164223
0.0180033
0.019546
0.021045
0.0224959
0.0238942
0.0252361
0.0265179
0.0277363
0.0288882
0.0299707
0.0309811
0.0319169
0.0327758
0.0335558
0.034255
0.0348716
0.0354043
0.0358516
0.0362126
0.0364864
0.0366722
0.0367697
0.0367787
0.036699
0.0365309
0.0362748
0.0359313
0.0355012
0.0349857
0.0343858
0.0337031
0.0329392
0.0320959
0.0311752
0.0301794
0.0291108
0.0279719
0.0267652
0.0254936
0.0241597
0.0227664
0.0213164
0.0198121
0.018256
0.01665
0.0149958
0.0132944
0.0115461
0.00975059
0.00790684
0.0060129
0.00406612
0.00206313
0
0
0.00160108
0.003242
0.00491377
0.00660719
0.00831318
0.0100229
0.0117277
0.0134198
0.0150916
0.0167363
0.0183476
0.0199197
0.0214474
0.022926
0.0243511
0.0257186
0.0270249
0.0282667
0.0294406
0.0305437
0.0315734
0.0325271
0.0334025
0.0341974
0.0349099
0.0355384
0.0360812
0.0365371
0.036905
0.037184
0.0373734
0.0374728
0.0374819
0.0374007
0.0372294
0.0369684
0.0366183
0.03618
0.0356546
0.0350432
0.0343475
0.033569
0.0327095
0.0317713
0.0307565
0.0296674
0.0285067
0.027277
0.025981
0.0246217
0.0232017
0.0217239
0.0201909
0.0186051
0.0169684
0.0152825
0.0135486
0.0117668
0.00993702
0.00805802
0.00612787
0.00414386
0.00210257
0
0
0.00162726
0.00329502
0.00499412
0.00671524
0.00844912
0.0101868
0.0119195
0.0136393
0.0153384
0.01701
0.0186476
0.0202454
0.0217981
0.0233009
0.0247492
0.0261392
0.0274669
0.0287289
0.029922
0.0310432
0.0320897
0.033059
0.0339487
0.0347566
0.0354808
0.0361195
0.0366712
0.0371346
0.0375085
0.037792
0.0379845
0.0380855
0.0380948
0.0380122
0.0378381
0.0375729
0.0372171
0.0367716
0.0362376
0.0356163
0.0349091
0.0341179
0.0332444
0.0322908
0.0312594
0.0301525
0.0289728
0.027723
0.0264059
0.0250243
0.0235811
0.0220792
0.0205211
0.0189093
0.0172459
0.0155324
0.0137701
0.0119592
0.0100995
0.00818978
0.00622807
0.00421162
0.00213695
0
0
0.00164952
0.00334009
0.00506244
0.0068071
0.00856471
0.0103261
0.0120826
0.0138258
0.0155482
0.0172427
0.0189027
0.0205224
0.0220963
0.0236196
0.0250878
0.0264967
0.0278426
0.0291219
0.0303313
0.0314679
0.0325287
0.0335113
0.0344131
0.0352321
0.0359662
0.0366136
0.0371729
0.0376426
0.0380216
0.038309
0.0385042
0.0386065
0.0386159
0.0385323
0.0383558
0.0380869
0.0377262
0.0372747
0.0367333
0.0361035
0.0353867
0.0345846
0.0336992
0.0327326
0.031687
0.030565
0.0293692
0.0281023
0.0267671
0.0253666
0.0239037
0.0223812
0.0208018
0.019168
0.0174818
0.0157449
0.0139585
0.0121228
0.0102377
0.00830182
0.00631327
0.00426924
0.00216619
0
0
0.0016678
0.00337712
0.00511856
0.00688257
0.00865966
0.0104406
0.0122165
0.0139791
0.0157206
0.0174338
0.0191123
0.0207499
0.0223413
0.0238815
0.0253659
0.0267905
0.0281513
0.0294447
0.0306676
0.0318167
0.0328893
0.0338828
0.0347946
0.0356227
0.0363649
0.0370195
0.037585
0.0380599
0.0384431
0.0387337
0.038931
0.0390346
0.039044
0.0389594
0.038781
0.0385091
0.0381445
0.0376879
0.0371406
0.0365038
0.035779
0.034968
0.0340728
0.0330955
0.0320383
0.0309039
0.0296948
0.0284138
0.0270638
0.0256478
0.0241687
0.0226293
0.0210324
0.0193805
0.0176756
0.0159195
0.0141132
0.0122572
0.0103512
0.00839385
0.00638326
0.00431657
0.0021902
0
0
0.00168207
0.00340602
0.00516235
0.00694145
0.00873375
0.0105299
0.012321
0.0140987
0.0158551
0.017583
0.0192758
0.0209274
0.0225324
0.0240858
0.025583
0.0270197
0.0283921
0.0296967
0.03093
0.0320889
0.0331707
0.0341727
0.0350923
0.0359274
0.036676
0.0373363
0.0379066
0.0383855
0.038772
0.0390651
0.0392641
0.0393685
0.0393781
0.0392928
0.0391128
0.0388386
0.0384708
0.0380104
0.0374584
0.0368161
0.0360851
0.0352672
0.0343643
0.0333786
0.0323124
0.0311683
0.0299488
0.0286569
0.0272954
0.0258673
0.0243755
0.0228229
0.0212124
0.0195463
0.0178268
0.0160557
0.014234
0.0123621
0.0104397
0.00846567
0.00643787
0.0043535
0.00220894
0
0
0.00169229
0.0034267
0.00519371
0.00698361
0.00878679
0.0105939
0.0123959
0.0141844
0.0159514
0.0176898
0.0193928
0.0210545
0.0226693
0.0242321
0.0257384
0.0271838
0.0285646
0.029877
0.0311178
0.0322838
0.0333722
0.0343802
0.0353055
0.0361457
0.0368988
0.037563
0.0381368
0.0386187
0.0390075
0.0393024
0.0395026
0.0396076
0.0396173
0.0395314
0.0393504
0.0390745
0.0387045
0.0382413
0.0376859
0.0370397
0.0363043
0.0354814
0.0345731
0.0335814
0.0325087
0.0313576
0.0301307
0.028831
0.0274612
0.0260244
0.0245235
0.0229616
0.0213412
0.019665
0.0179351
0.0161532
0.0143204
0.0124372
0.0105031
0.00851709
0.00647698
0.00437994
0.00222236
0
0
0.00169843
0.00343914
0.00521255
0.00700895
0.00881867
0.0106323
0.0124409
0.0142358
0.0160093
0.017754
0.0194632
0.0211309
0.0227515
0.02432
0.0258317
0.0272824
0.0286682
0.0299854
0.0312307
0.032401
0.0334933
0.034505
0.0354336
0.0362768
0.0370327
0.0376993
0.0382752
0.0387588
0.0391491
0.039445
0.0396459
0.0397514
0.039761
0.0396749
0.0394931
0.0392163
0.0388449
0.03838
0.0378226
0.0371741
0.036436
0.0356102
0.0346985
0.0337032
0.0326266
0.0314714
0.0302401
0.0289356
0.0275608
0.0261188
0.0246125
0.0230449
0.0214186
0.0197363
0.0180002
0.0162118
0.0143724
0.0124823
0.0105413
0.00854799
0.00650048
0.00439583
0.00223042
0
0
0.00170048
0.00344328
0.00521884
0.0070174
0.00882931
0.0106451
0.0124559
0.014253
0.0160286
0.0177754
0.0194867
0.0211564
0.022779
0.0243493
0.0258629
0.0273153
0.0287028
0.0300216
0.0312684
0.0324401
0.0335337
0.0345466
0.0354763
0.0363206
0.0370773
0.0377448
0.0383213
0.0388055
0.0391963
0.0394926
0.0396938
0.0397993
0.039809
0.0397227
0.0395408
0.0392636
0.0388918
0.0384263
0.0378682
0.0372189
0.03648
0.0356531
0.0347403
0.0337438
0.032666
0.0315093
0.0302765
0.0289705
0.0275941
0.0261503
0.0246422
0.0230727
0.0214445
0.0197601
0.0180219
0.0162314
0.0143897
0.0124974
0.010554
0.0085583
0.00650832
0.00440113
0.00223311
0
0
0.00169843
0.00343914
0.00521255
0.00700895
0.00881867
0.0106323
0.0124409
0.0142358
0.0160093
0.017754
0.0194632
0.0211309
0.0227515
0.02432
0.0258317
0.0272824
0.0286682
0.0299854
0.0312307
0.032401
0.0334933
0.034505
0.0354336
0.0362768
0.0370327
0.0376993
0.0382752
0.0387588
0.0391491
0.039445
0.0396459
0.0397514
0.039761
0.0396749
0.0394931
0.0392163
0.0388449
0.03838