# vtk DataFile Version 3.0
3D field
ASCII
DATASET STRUCTURED_POINTS
DIMENSIONS 65 65 65
ORIGIN 0 0 0
SPACING 0.015625 0.015625 0.015625
POINT_DATA 274625
SCALARS temperature double 1
LOOKUP_TABLE default
0
0
0
0
0
0
0
0
0
0
0
0
0
0
0
0
0
0
0
0
0
0
0
0
0
0
0
0
0
0
0
0
0
0
0
0
0
0
0
0
0
0
0
0
0
0
0
0
0
0
0
0
0
0
0
0
0
0
0
0
0
0
0
0
0
0
0
0
0
0
0
0
0
0
0
0
0
0
0
0
0
0
0
0
0
0
0
0
0
0
0
0
0
0
0
0
0
0
0
0
0
0
0
0
0
0
0
0
0
0
0
0
0
0
0
0
0
0
0
0
0
0
0
0
0
0
0
0
0
0
0
0
0
0
0
0
0
0
0
0
0
0
0
0
0
0
0
0
0
0
0
0
0
0
0
0
0
0
0
0
0
0
0
0
0
0
0
0
0
0
0
0
0
0
0
0
0
0
0
0
0
0
0
0
0
0
0
0
0
0
0
0
0
0
0
0
0
0
0
0
0
0
0
0
0
0
0
0
0
0
0
0
0
0
0
0
0
0
0
0
0
0
0
0
0
0
0
0
0
0
0
0
0
0
0
0
0
0
0
0
0
0
0
0
0
0
0
0
0
0
0
0
0
0
0
0
0
0
0
0
0
0
0
0
0
0
0
0
0
0
0
0
0
0
0
0
0
0
0
0
0
0
0
0
0
0
0
0
0
0
0
0
0
0
0
0
0
0
0
0
0
0
0
0
0
0
0
0
0
0
0
0
0
0
0
0
0
0
0
0
0
0
0
0
0
0
0
0
0
0
0
0
0
0
0
0
0
0
0
0
0
0
0
0
0
0
0
0
0
0
0
0
0
0
0
0
0
0
0
0
0
0
0
0
0
0
0
0
0
0
0
0
0
0
0
0
0
0
0
0
0
0
0
0
0
0
0
0
0
0
0
0
0
0
0
0
0
0
0
0
0
0
0
0
0
0
0
0
0
0
0
0
0
0
0
0
0
0
0
0
0
0
0
0
0
0
0
0
0
0
0
0
0
0
0
0
0
0
0
0
0
0
0
0
0
0
0
0
0
0
0
0
0
0
0
0
0
0
0
0
0
0
0
0
0
0
0
0
0
0
0
0
0
0
0
0
0
0
0
0
0
0
0
0
0
0
0
0
0
0
0
0
0
0
0
0
0
0
0
0
0
0
0
0
0
0
0
0
0
0
0
0
0
0
0
0
0
0
0
0
0
0
0
0
0
0
0
0
0
0
0
0
0
0
0
0
0
0
0
0
0
0
0
0
0
0
0
0
0
0
0
0
0
0
0
0
0
0
0
0
0
0
0
0
0
0
0
0
0
0
0
0
0
0
0
0
0
0
0
0
0
0
0
0
0
0
0
0
0
0
0
0
0
0
0
0
0
0
0
0
0
0
0
0
0
0
0
0
0
0
0
0
0
0
0
0
0
0
0
0
0
0
0
0
0
0
0
0
0
0
0
0
0
0
0
0
0
0
0
0
0
0
0
0
0
0
0
0
0
0
0
0
0
0
0
0
0
0
0
0
0
0
0
0
0
0
0
0
0
0
0
0
0
0
0
0
0
0
0
0
0
0
0
0
0
0
0
0
0
0
0
0
0
0
0
0
0
0
0
0
0
0
0
0
0
0
0
0
0
0
0
0
0
0
0
0
0
0
0
0
0
0
0
0
0
0
0
0
0
0
0
0
0
0
0
0
0
0
0
0
0
0
0
0
0
0
0
0
0
0
0
0
0
0
0
0
0
0
0
0
0
0
0
0
0
0
0
0
0
0
0
0
0
0
0
0
0
0
0
0
0
0
0
0
0
0
0
0
0
0
0
0
0
0
0
0
0
0
0
0
0
0
0
0
0
0
0
0
0
0
0
0
0
0
0
0
0
0
0
0
0
0
0
0
0
0
0
0
0
0
0
0
0
0
0
0
0
0
0
0
0
0
0
0
0
0
0
0
0
0
0
0
0
0
0
0
0
0
0
0
0
0
0
0
0
0
0
0
0
0
0
0
0
0
0
0
0
0
0
0
0
0
0
0
0
0
0
0
0
0
0
0
0
0
0
0
0
0
0
0
0
0
0
0
0
0
0
0
0
0
0
0
0
0
0
0
0
0
0
0
0
0
0
0
0
0
0
0
0
0
0
0
0
0
0
0
0
0
0
0
0
0
0
0
0
0
0
0
0
0
0
0
0
0
0
0
0
0
0
0
0
0
0
0
0
0
0
0
0
0
0
0
0
0
0
0
0
0
0
0
0
0
0
0
0
0
0
0
0
0
0
0
0
0
0
0
0
0
0
0
0
0
0
0
0
0
0
0
0
0
0
0
0
0
0
0
0
0
0
0
0
0
0
0
0
0
0
0
0
0
0
0
0
0
0
0
0
0
0
0
0
0
0
0
0
0
0
0
0
0
0
0
0
0
0
0
0
0
0
0
0
0
0
0
0
0
0
0
0
0
0
0
0
0
0
0
0
0
0
0
0
0
0
0
0
0
0
0
0
0
0
0
0
0
0
0
0
0
0
0
0
0
0
0
0
0
0
0
0
0
0
0
0
0
0
0
0
0
0
0
0
0
0
0
0
0
0
0
0
0
0
0
0
0
0
0
0
0
0
0
0
0
0
0
0
0
0
0
0
0
0
0
0
0
0
0
0
0
0
0
0
0
0
0
0
0
0
0
0
0
0
0
0
0
0
0
0
0
0
0
0
0
0
0
0
0
0
0
0
0
0
0
0
0
0
0
0
0
0
0
0
0
0
0
0
0
0
0
0
0
0
0
0
0
0
0
0
0
0
0
0
0
0
0
0
0
0
0
0
0
0
0
0
0
0
0
0
0
0
0
0
0
0
0
0
0
0
0
0
0
0
0
0
0
0
0
0
0
0
0
0
0
0
0
0
0
0
0
0
0
0
0
0
0
0
0
0
0
0
0
0
0
0
0
0
0
0
0
0
0
0
0
0
0
0
0
0
0
0
0
0
0
0
0
0
0
0
0
0
0
0
0
0
0
0
0
0
0
0
0
0
0
0
0
0
0
0
0
0
0
0
0
0
0
0
0
0
0
0
0
0
0
0
0
0
0
0
0
0
0
0
0
0
0
0
0
0
0
0
0
0
0
0
0
0
0
0
0
0
0
0
0
0
0
0
0
0
0
0
0
0
0
0
0
0
0
0
0
0
0
0
0
0
0
0
0
0
0
0
0
0
0
0
0
0
0
0
0
0
0
0
0
0
0
0
0
0
0
0
0
0
0
0
0
0
0
0
0
0
0
0
0
0
0
0
0
0
0
0
0
0
0
0
0
0
0
0
0
0
0
0
0
0
0
0
0
0
0
0
0
0
0
0
0
0
0
0
0
0
0
0
0
0
0
0
0
0
0
0
0
0
0
0
0
0
0
0
0
0
0
0
0
0
0
0
0
0
0
0
0
0
0
0
0
0
0
0
0
0
0
0
0
0
0
0
0
0
0
0
0
0
0
0
0
0
0
0
0
0
0
0
0
0
0
0
0
0
0
0
0
0
0
0
0
0
0
0
0
0
0
0
0
0
0
0
0
0
0
0
0
0
0
0
0
0
0
0
0
0
0
0
0
0
0
0
0
0
0
0
0
0
0
0
0
0
0
0
0
0
0
0
0
0
0
0
0
0
0
0
0
0
0
0
0
0
0
0
0
0
0
0
0
0
0
0
0
0
0
0
0
0
0
0
0
0
0
0
0
0
0
0
0
0
0
0
0
0
0
0
0
0
0
0
0
0
0
0
0
0
0
0
0
0
0
0
0
0
0
0
0
0
0
0
0
0
0
0
0
0
0
0
0
0
0
0
0
0
0
0
0
0
0
0
0
0
0
0
0
0
0
0
0
0
0
0
0
0
0
0
0
0
0
0
0
0
0
0
0
0
0
0
0
0
0
0
0
0
0
0
0
0
0
0
0
0
0
0
0
0
0
0
0
0
0
0
0
0
0
0
0
0
0
0
0
0
0
0
0
0
0
0
0
0
0
0
0
0
0
0
0
0
0
0
0
0
0
0
0
0
0
0
0
0
0
0
0
0
0
0
0
0
0
0
0
0
0
0
0
0
0
0
0
0
0
0
0
0
0
0
0
0
0
0
0
0
0
0
0
0
0
0
0
0
0
0
0
0
0
0
0
0
0
0
0
0
0
0
0
0
0
0
0
0
0
0
0
0
0
0
0
0
0
0
0
0
0
0
0
0
0
0
0
0
0
0
0
0
0
0
0
0
0
0
0
0
0
0
0
0
0
0
0
0
0
0
0
0
0
0
0
0
0
0
0
0
0
0
0
0
0
0
0
0
0
0
0
0
0
0
0
0
0
0
0
0
0
0
0
0
0
0
0
0
0
0
0
0
0
0
0
0
0
0
0
0
0
0
0
0
0
0
0
0
0
0
0
0
0
0
0
0
0
0
0
0
0
0
0
0
0
0
0
0
0
0
0
0
0
0
0
0
0
0
0
0
0
0
0
0
0
0
0
0
0
0
0
0
0
0
0
0
0
0
0
0
0
0
0
0
0
0
0
0
0
0
0
0
0
0
0
0
0
0
0
0
0
0
0
0
0
0
0
0
0
0
0
0
0
0
0
0
0
0
0
0
0
0
0
0
0
0
0
0
0
0
0
0
0
0
0
0
0
0
0
0
0
0
0
0
0
0
0
0
0
0
0
0
0
0
0
0
0
0
0
0
0
0
0
0
0
0
0
0
0
0
0
0
0
0
0
0
0
0
0
0
0
0
0
0
0
0
0
0
0
0
0
0
0
0
0
0
0
0
0
0
0
0
0
0
0
0
0
0
0
0
0
0
0
0
0
0
0
0
0
0
0
0
0
0
0
0
0
0
0
0
0
0
0
0
0
0
0
0
0
0
0
0
0
0
0
0
0
0
0
0
0
0
0
0
0
0
0
0
0
0
0
0
0
0
0
0
0
0
0
0
0
0
0
0
0
0
0
0
0
0
0
0
0
0
0
0
0
0
0
0
0
0
0
0
0
0
0
0
0
0
0
0
0
0
0
0
0
0
0
0
0
0
0
0
0
0
0
0
0
0
0
0
0
0
0
0
0
0
0
0
0
0
0
0
0
0
0
0
0
0
0
0
0
0
0
0
0
0
0
0
0
0
0
0
0
0
0
0
0
0
0
0
0
0
0
0
0
0
0
0
0
0
0
0
0
0
0
0
0
0
0
0
0
0
0
0
0
0
0
0
0
0
0
0
0
0
0
0
0
0
0
0
0
0
0
0
0
0
0
0
0
0
0
0
0
0
0
0
0
0
0
0
0
0
0
0
0
0
0
0
0
0
0
0
0
0
0
0
0
0
0
0
0
0
0
0
0
0
0
0
0
0
0
0
0
0
0
0
0
0
0
0
0
0
0
0
0
0
0
0
0
0
0
0
0
0
0
0
0
0
0
0
0
0
0
0
0
0
0
0
0
0
0
0
0
0
0
0
0
0
0
0
0
0
0
0
0
0
0
0
0
0
0
0
0
0
0
0
0
0
0
0
0
0
0
0
0
0
0
0
0
0
0
0
0
0
0
0
0
0
0
0
0
0
0
0
0
0
0
0
0
0
0
0
0
0
0
0
0
0
0
0
0
0
0
0
0
0
0
0
0
0
0
0
0
0
0
0
0
0
0
0
0
0
0
0
0
0
0
0
0
0
0
0
0
0
0
0
0
0
0
0
0
0
0
0
0
0
0
0
0
0
0
0
0
0
0
0
0
0
0
0
0
0
0
0
0
0
0
0
0
0
0
0
0
0
0
0
0
0
0
0
0
0
0
0
0
0
0
0
0
0
0
0
0
0
0
0
0
0
0
0
0
0
0
0
0
0
0
0
0
0
0
0
0
0
0
0
0
0
0
0
0
0
0
0
0
0
0
0
0
0
0
0
0
0
0
0
0
0
0
0
0
0
0
0
0
0
0
0
0
0
0
0
0
0
0
0
0
0
0
0
0
0
0
0
0
0
0
0
0
0
0
0
0
0
0
0
0
0
0
0
0
0
0
0
0
0
0
0
0
0
0
0
0
0
0
0
0
0
0
0
0
0
0
0
0
0
0
0
0
0
0
0
0
0
0
0
0
0
0
0
0
0
0
0
0
0
0
0
0
0
0
0
0
0
0
0
0
0
0
0
0
0
0
0
0
0
0
0
0
0
0
0
0
0
0
0
0
0
0
0
0
0
0
0
0
0
0
0
0
0
0
0
0
0
0
0
0
0
0
0
0
0
0
0
0
0
0
0
0
0
0
0
0
0
0
0
0
0
0
0
0
0
0
0
0
0
0
0
0
0
0
0
0
0
0
0
0
0
0
0
0
0
0
0
0
0
0
0
0
0
0
0
0
0
0
0
0
0
0
0
0
0
0
0
0
0
0
0
0
0
0
0
0
0
0
0
0
0
0
0
0
0
0
0
0
0
0
0
0
0
0
0
0
0
0
0
0
0
0
0
0
0
0
0
0
0
0
0
0
0
0
0
0
0
0
0
0
0
0
0
0
0
0
0
0
0
0
0
0
0
0
0
0
0
0
0
0
0
0
0
0
0
0
0
0
0
0
0
0
0
0
0
0
0
0
0
0
0
0
0
0
0
0
0
0
0
0
0
0
0
0
0
0
0
0
0
0
0
0
0
0
0
0
0
0
0
0
0
0
0
0
0
0
0
0
0
0
0
0
0
0
0
0
0
0
0
0
0
0
0
0
0
0
0
0
0
0
0
0
0
0
0
0
0
0
0
0
0
0
0
0
0
0
0
0
0
0
0
0
0
0
0
0
0
0
0
0
0
0
0
0
0
0
0
0
0
0
0
0
0
0
0
0
0
0
0
0
0
0
0
0
0
0
0
0
0
0
0
0
0
0
0
0
0
0
0
0
0
0
0
0
0
0
0
0
0
0
0
0
0
0
0
0
0
0
0
0
0
0
0
0
0
0
0
0
0
0
0
0
0
0
0
0
0
0
0
0
0
0
0
0
0
0
0
0
0
0
0
0
0
0
0
0
0
0
0
0
0
0
0
0
0
0
0
0
0
0
0
0
0
0
0
0
0
0
0
0
0
0
0
0
0
0
0
0
0
0
0
0
0
0
0
0
0
0
0
0
0
0
0
0
0
0
0
0
0
0
0
0
0
0
0
0
0
0
0
0
0
0
0
0
0
0
0
0
0
0
0
0
0
0
0
0
0
0
0
0
0
0
0
0
0
0
0
0
0
0
0
0
0
0
0
0
0
0
0
0
0
0
0
0
0
0
0
0
0
0
0
0
0
0
0
0
0
0
0
0
0
0
0
0
0
0
0
0
0
0
0
0
0
0
0
0
0
0
0
0
0
0
0
0
0
0
0
0
0
0
0
0
0
0
0
0
0
0
0
0
0
0
0
0
0
0
0
0
0
0
0
0
0
0
0
0
0
0
0
0
0
0
0
0
0
0
0
0
0
0
0
0
0
0
0
0
0
0
0
0
0
0
0
0
0
0
0
0
0
0
0
0
0
0
0
0
0
0
0
0
0
0
0
0
0
0
0
0
0
0
0
0
0
0
0
0
0
0
0
0
0
0
0
0
0
0
0
0
0
0
0
0
0
0
0
0
0
0
0
0
0
0
0
0
0
0
0
0
0
0
0
0
0
0
0
0
0
0
0
0
0
0
0
0
0
0
0
0
0
0
0
0
0
0
0
0
0
0
0
0
0
0
0
0
0
0
0
0
0
0
0
0
0
0
0
0
0
0
0
0
0
0
0
0
0
0
0
0
0
0
0
0
0
0
0
0
0
0
0
0
0
0
0
0
0
0
0
0
0
0
0
0
0
0
0
0
0
0
0
0
0
0
0
0
0
0
0
0
0
0
0
0
0
0
0
0
0
0
0
0
0
0
0
0
0
0
0
0
0
0
0
0
0
0
0
0
0
0
0
0
0
0
0
0
0
0
0
0
0
0
0
0
0
0
0
0
0
0
0
0
0
0
0
0
0
0
0
0
0
0
0
0
0
0
0
0
0
0
0
0
0
0
0
0
0
0
0
0
0
0
0
0
0
0
0
0
0
0
0
0
0
0
0
0
0
0
0
0
0
0
0
0
0
0
0
0
0
0
0
0
0
0
0
0
0
0
0
0
0
0
0
0
0
0
0
0
0
0
0
0
0
0
0
0
0
0
0
0
0
0
0
0
0
0
0
0
0
0
0
0
0
0
0
0
0
0
0
0
0
0
0
0
0
0
0
0
0
0
0
0
0
0
0
0
0
0
0
0
0
0
0
0
0
0
0
0
0
0
0
0
0
0
0
0
0
0
0
0
0
0
0
0
0
0
0
0
0
0
0
0
0
0
0
0
0
0
0
0
0
0
0
0
0
0
0
0
0
0
0
0
0
0
0
0
0
0
0
0
0
0
0
0
0
0
0
0
0
0
0
0
0
0
0
0
0
0
0
0
0
0
0
0
0
0
0
0
0
0
0
0
0
0
0
0
0
0
0
0
0
0
0
0
0
0
0
0
0
0
0
0
0
0
0
0
0
0
0
0
0
0
0
0
0
0
0
0
0
0
0
0
0
0
0
0
0
0
0
0
0
0
0
0
0
0
0
0
0
0
0
0
0
0
0
0
0
0
0
0
0
0
0
0
0
0
0
0
0
0
0
0
0
0
0
0
0
0
0
0
0
0
0
0
0
0
0
0
0
0
0
0
0
0
0
0
0
0
0
0
0
0
0
0
0
0
0
0
0
0
0
0
0
0
0
0
0
0
0
0
0
0
0
0
0
0
0
0
0
0
0
0
0
0
0
0
0
0
0
0
0
0
0
0
0
0
0
0
0
0
0
0
0
0
0
0
0
0
0
0
0
0
0
0
0
0
0
0
0
0
0
0
0
0
0
0
0
0
0
0
0
0
0
0
0
0
0
0
0
0
0
0
0
0
0
0
0
0
0
0
0
0
0
0
0
0
0
0
0
0
0
0
0
0
0
0
0
0
0
0
0
0
0
0
0
0
0
0
0
0
0
0
0
0
0
0
0
0
0
0
0
0
0
0
0
0
0
0
0
0
0
0
0
0
0
0
0
0
0
0
0
0
0
0
0
0
0
0
0
0
0
0
0
0
0
0
0
0
0
0
0
0
0
0
0
0
0
0
0
0
0
0
0
0
0
0
0
0
0
0
0
0
0
0
0
0
0
0
0
0
0
0
0
0
0
0
0
0
0
0
0
0
0
0
0
0
0
0
0
0
0
0
0
0
0
0
0
0
0
0
0
0
0
0
0
0
0
0
0
0
0
0
0
0
0
0
0
0
0
0
0
0
0
0
0
0
0
0
0
0
0
0
0
0
0
0
0
0
0
0
0
0
0
0
0
0
0
0
0
0
0
0
0
0
0
0
0
0
0
0
0
0
0
0
0
0
0
0
0
0
0
0
0
0
0
0
0
0
0
0
0
0
0
0
0
0
0
0
0
0
0
0
0
0
0
0
0
0
0
0
0
0
0
0
0
0
0
0
0
0
0
0
0
0
0
0
0
0
0
0
0
0
0
0
0
0
0
0
0
0
0
0
0
0
0
0
0
0
0
0
0
0
0
0
0
0
0
0
0
0
0
0
0
0
0
0
0
0
0
0
0
0
0
0
0
0
0
0
0
0
0
0
0
0
0
0
0
0
0
0
0
0
0
0
0
0
0
0
0
0
0
0
0
0
0
0
0
0
0
0
0
0
0
0
0
0
0
0
0
9.78563e-05
0.00019794
0.000299508
0.000401845
0.000504296
0.000606279
0.000707293
0.000806909
0.000904764
0.00100054
0.00109396
0.00118477
0.00127274
0.00135765
0.0014393
0.00151747
0.00159199
0.00166268
0.00172936
0.00179188
0.00185007
0.00190381
0.00195297
0.00199742
0.00203705
0.00207178
0.00210152
0.0021262
0.00214575
0.00216014
0.00216932
0.00217327
0.00217199
0.00216548
0.00215375
0.00213683
0.00211476
0.0020876
0.00205541
0.00201826
0.00197626
0.00192949
0.00187808
0.00182214
0.00176181
0.00169724
0.00162858
0.001556
0.00147966
0.00139976
0.00131649
0.00123004
0.00114062
0.00104843
0.000953669
0.000856527
0.000757165
0.000655704
0.000552206
0.000446653
0.000338929
0.000228813
0.000115977
0
0
0.000195477
0.000395404
0.000598295
0.000802723
0.00100738
0.0012111
0.00141288
0.00161188
0.00180735
0.00199867
0.00218529
0.00236669
0.00254242
0.00271204
0.00287513
0.00303129
0.00318015
0.00332136
0.00345456
0.00357943
0.00369569
0.00380304
0.00390123
0.00399002
0.0040692
0.00413858
0.00419798
0.00424727
0.00428633
0.00431507
0.00433341
0.00434131
0.00433875
0.00432573
0.0043023
0.0042685
0.00422442
0.00417017
0.00410586
0.00403167
0.00394776
0.00385434
0.00375164
0.00363989
0.00351938
0.00339039
0.00325324
0.00310824
0.00295576
0.00279615
0.00262981
0.00245712
0.00227849
0.00209433
0.00190504
0.00171099
0.00151251
0.00130983
0.00110308
0.00089223
0.000677042
0.000457075
0.000231674
0
0
0.000292626
0.000591915
0.00089564
0.00120167
0.00150803
0.001813
0.00211507
0.00241296
0.00270558
0.00299198
0.00327135
0.00354291
0.00380597
0.00405989
0.00430403
0.00453781
0.00476065
0.00497203
0.00517143
0.00535837
0.0055324
0.00569311
0.00584009
0.00597301
0.00609154
0.0061954
0.00628433
0.00635812
0.00641659
0.0064596
0.00648706
0.00649888
0.00649505
0.00647557
0.00644049
0.0063899
0.00632391
0.00624269
0.00614643
0.00603536
0.00590975
0.0057699
0.00561615
0.00544888
0.00526847
0.00507538
0.00487006
0.004653
0.00442473
0.00418581
0.00393679
0.00367828
0.00341087
0.00313519
0.00285182
0.00256133
0.0022642
0.0019608
0.0016513
0.00133566
0.00101352
0.000684236
0.000346813
0
0
0.000389071
0.000787
0.00119083
0.00159771
0.00200505
0.00241053
0.00281216
0.00320823
0.00359729
0.00397809
0.00434953
0.00471059
0.00506036
0.00539796
0.00572257
0.00603339
0.00632968
0.00661073
0.00687584
0.0071244
0.00735579
0.00756946
0.00776489
0.00794162
0.00809921
0.00823729
0.00835553
0.00845364
0.00853139
0.00858858
0.00862508
0.0086408
0.00863571
0.00860981
0.00856317
0.0084959
0.00840816
0.00830017
0.00817218
0.00802451
0.0078575
0.00767156
0.00746714
0.00724473
0.00700487
0.00674814
0.00647514
0.00618655
0.00588305
0.00556538
0.00523429
0.00489058
0.00453504
0.0041685
0.00379174
0.0034055
0.00301045
0.00260704
0.00219554
0.00177587
0.00134756
0.000909748
0.000461117
0
0
0.000484578
0.000980189
0.00148315
0.00198991
0.00249724
0.00300226
0.00350247
0.00399577
0.00448034
0.00495461
0.00541723
0.00586692
0.00630255
0.00672303
0.00712732
0.00751444
0.00788346
0.0082335
0.00856369
0.00887326
0.00916145
0.00942757
0.00967098
0.00989109
0.0100874
0.0102593
0.0104066
0.0105288
0.0106256
0.0106969
0.0107423
0.0107619
0.0107556
0.0107233
0.0106652
0.0105814
0.0104722
0.0103377
0.0101783
0.00999432
0.00978632
0.00955474
0.00930014
0.00902314
0.0087244
0.00840464
0.00806463
0.00770519
0.0073272
0.00693154
0.00651918
0.00609109
0.00564828
0.00519176
0.00472251
0.00424147
0.00374944
0.00324701
0.00273449
0.0022118
0.00167836
0.00113307
0.00057431
0
0
0.000578918
0.00117102
0.00177189
0.00237732
0.00298342
0.00358675
0.00418435
0.00477368
0.00535259
0.0059192
0.00647188
0.00700912
0.00752956
0.0080319
0.00851489
0.00897739
0.00941825
0.00983643
0.0102309
0.0106007
0.010945
0.011263
0.0115538
0.0118167
0.0120512
0.0122567
0.0124326
0.0125786
0.0126943
0.0127794
0.0128337
0.0128571
0.0128495
0.012811
0.0127416
0.0126415
0.0125109
0.0123502
0.0121598
0.0119401
0.0116916
0.0114149
0.0111107
0.0107798
0.0104229
0.0100409
0.00963469
0.00920528
0.00875369
0.00828101
0.00778836
0.00727693
0.00674791
0.00620251
0.00564191
0.00506722
0.00447939
0.00387915
0.00326686
0.0026424
0.00200511
0.00135366
0.000686119
0
0
0.000671864
0.00135902
0.00205637
0.002759
0.00346241
0.00416261
0.00485615
0.0055401
0.00621194
0.00686953
0.00751094
0.00813444
0.00873843
0.00932142
0.00988196
0.0104187
0.0109304
0.0114157
0.0118735
0.0123027
0.0127023
0.0130712
0.0134087
0.0137139
0.013986
0.0142245
0.0144287
0.0145981
0.0147323
0.0148311
0.0148941
0.0149213
0.0149125
0.0148678
0.0147872
0.0146711
0.0145196
0.0143331
0.0141121
0.013857
0.0135686
0.0132476
0.0128946
0.0125105
0.0120963
0.011653
0.0111815
0.0106832
0.0101591
0.00961052
0.00903878
0.00844524
0.00783129
0.00719833
0.00654772
0.00588076
0.00519856
0.00450195
0.00379135
0.00306664
0.00232703
0.00157099
0.000796275
0
0
0.00076319
0.00154376
0.00233589
0.00313403
0.00393305
0.00472843
0.00551625
0.00629316
0.00705634
0.00780331
0.0085319
0.00924016
0.00992625
0.0105885
0.0112252
0.0118349
0.0124161
0.0129674
0.0134875
0.013975
0.0144289
0.014848
0.0152314
0.015578
0.0158872
0.016158
0.01639
0.0165824
0.0167349
0.0168471
0.0169187
0.0169495
0.0169396
0.0168888
0.0167973
0.0166653
0.0164932
0.0162814
0.0160303
0.0157406
0.015413
0.0150483
0.0146473
0.0142111
0.0137406
0.0132369
0.0127014
0.0121354
0.01154
0.0109169
0.0102674
0.00959321
0.0088958
0.0081768
0.00743776
0.00668014
0.0059052
0.0051139
0.00430671
0.00348349
0.00264334
0.00178454
0.000904514
0
0
0.000852679
0.00172477
0.00260979
0.00350151
0.00439422
0.00528286
0.00616305
0.00703107
0.00788373
0.00871829
0.00953231
0.0103236
0.0110902
0.01183
0.0125414
0.0132226
0.013872
0.0144879
0.0150689
0.0156136
0.0161208
0.016589
0.0170173
0.0174046
0.01775
0.0180527
0.0183118
0.0185268
0.0186972
0.0188225
0.0189025
0.018937
0.0189258
0.018869
0.0187668
0.0186194
0.0184271
0.0181904
0.01791
0.0175863
0.0172203
0.0168128
0.0163648
0.0158774
0.0153517
0.014789
0.0141908
0.0135583
0.0128931
0.0121969
0.0114713
0.0107181
0.00993888
0.00913557
0.00830987
0.00746342
0.00659762
0.00571353
0.00481169
0.00389195
0.00295329
0.00199378
0.00101057
0
0
0.000940112
0.00190163
0.0028774
0.00386056
0.00484481
0.00582457
0.00679502
0.00775204
0.00869213
0.00961226
0.0105098
0.0113822
0.0122273
0.0130431
0.0138274
0.0145785
0.0152944
0.0159735
0.0166141
0.0172147
0.0177738
0.0182901
0.0187623
0.0191893
0.0195701
0.0199038
0.0201895
0.0204265
0.0206144
0.0207526
0.0208408
0.0208788
0.0208665
0.0208039
0.0206912
0.0205286
0.0203166
0.0200557
0.0197464
0.0193896
0.0189861
0.0185368
0.0180429
0.0175054
0.0169259
0.0163055
0.0156459
0.0149486
0.0142152
0.0134476
0.0126476
0.0118171
0.010958
0.0100723
0.00916197
0.00822872
0.00727414
0.0062994
0.00530509
0.00429103
0.00325612
0.00219823
0.0011142
0
0
0.00102528
0.00207391
0.00313807
0.0042103
0.00528372
0.00635224
0.00741061
0.00845433
0.00947959
0.0104831
0.0114619
0.0124134
0.0133351
0.0142247
0.0150801
0.0158992
0.01668
0.0174206
0.0181192
0.0187742
0.019384
0.0199471
0.0204621
0.0209278
0.0213431
0.0217069
0.0220185
0.0222771
0.0224819
0.0226327
0.0227288
0.0227703
0.0227569
0.0226886
0.0225657
0.0223884
0.0221572
0.0218726
0.0215354
0.0211462
0.0207061
0.0202161
0.0196774
0.0190913
0.0184593
0.0177827
0.0170633
0.0163028
0.015503
0.0146659
0.0137934
0.0128877
0.0119508
0.0109848
0.009992
0.0089742
0.00793314
0.00687009
0.0057857
0.00467977
0.0035511
0.00239737
0.00121514
0
0
0.00110798
0.00224119
0.00339119
0.00454991
0.00570991
0.00686462
0.00800835
0.00913626
0.0102442
0.0113286
0.0123864
0.0134146
0.0144107
0.0153721
0.0162965
0.0171816
0.0180254
0.0188258
0.0195807
0.0202886
0.0209475
0.021556
0.0221125
0.0226158
0.0230646
0.0234578
0.0237945
0.0240739
0.0242953
0.0244582
0.0245622
0.0246069
0.0245924
0.0245187
0.0243858
0.0241943
0.0239444
0.0236369
0.0232724
0.0228519
0.0223763
0.0218468
0.0212646
0.0206313
0.0199482
0.0192171
0.0184396
0.0176178
0.0167535
0.0158489
0.014906
0.0139272
0.0129147
0.0118709
0.010798
0.00969806
0.00857303
0.00742423
0.00625237
0.00505724
0.00383754
0.00259074
0.00131315
0
0
0.00118801
0.00240307
0.00363614
0.00487855
0.00612234
0.00736045
0.00858679
0.00979617
0.0109842
0.0121469
0.0132811
0.0143836
0.0154516
0.0164824
0.0174736
0.0184227
0.0193274
0.0201855
0.0209951
0.021754
0.0224606
0.023113
0.0237097
0.0242494
0.0247306
0.0251522
0.0255132
0.0258128
0.0260502
0.0262248
0.0263363
0.0263843
0.0263687
0.0262897
0.0261472
0.0259418
0.0256739
0.0253442
0.0249534
0.0245025
0.0239925
0.0234248
0.0228006
0.0221215
0.0213891
0.0206051
0.0197715
0.0188903
0.0179636
0.0169936
0.0159827
0.0149331
0.0138475
0.0127283
0.0115779
0.0103986
0.00919226
0.00796049
0.00670398
0.00542253
0.00411472
0.00277788
0.001408
0
0
0.00126518
0.00255916
0.00387232
0.00519544
0.00652002
0.00783855
0.00914455
0.0104325
0.0116976
0.0129359
0.0141438
0.0153179
0.0164552
0.017553
0.0186086
0.0196193
0.0205828
0.0214967
0.0223588
0.0231671
0.0239195
0.0246143
0.0252498
0.0258245
0.026337
0.026786
0.0271705
0.0274895
0.0277423
0.0279283
0.028047
0.0280981
0.0280815
0.0279973
0.0278457
0.0276269
0.0273416
0.0269904
0.0265742
0.026094
0.025551
0.0249463
0.0242816
0.0235584
0.0227784
0.0219435
0.0210558
0.0201174
0.0191305
0.0180975
0.0170208
0.0159031
0.014747
0.0135551
0.0123299
0.011074
0.00978935
0.00847756
0.00713944
0.00577475
0.004382
0.00295831
0.00149946
0
0
0.0013393
0.00270909
0.00409918
0.00549981
0.00690199
0.00829777
0.00968028
0.0110437
0.0123829
0.0136938
0.0149724
0.0162153
0.0174193
0.0185814
0.0196988
0.0207687
0.0217887
0.0227561
0.0236687
0.0245243
0.0253208
0.0260563
0.0267291
0.0273374
0.0278799
0.0283552
0.0287622
0.0291
0.0293676
0.0295644
0.0296901
0.0297442
0.0297267
0.0296375
0.029477
0.0292454
0.0289434
0.0285717
0.0281311
0.0276227
0.0270478
0.0264078
0.0257041
0.0249385
0.0241129
0.0232291
0.0222894
0.0212959
0.0202512
0.0191577
0.018018
0.0168348
0.015611
0.0143492
0.0130523
0.0117228
0.0103629
0.00897422
0.00755771
0.00611306
0.00463872
0.00313163
0.0015873
0
0
0.00141019
0.00285249
0.00431617
0.00579093
0.00726733
0.008737
0.0101927
0.0116282
0.0130384
0.0144186
0.0157649
0.0170736
0.0183413
0.019565
0.0207415
0.0218681
0.022942
0.0239606
0.0249216
0.0258224
0.0266611
0.0274356
0.0281439
0.0287845
0.0293557
0.0298562
0.0302847
0.0306403
0.0309221
0.0311294
0.0312617
0.0313187
0.0313002
0.0312063
0.0310373
0.0307935
0.0304755
0.030084
0.0296202
0.0290849
0.0284796
0.0278056
0.0270647
0.0262586
0.0253892
0.0244587
0.0234692
0.0224232
0.0213232
0.0201718
0.0189717
0.0177259
0.0164373
0.0151088
0.0137432
0.0123433
0.0109114
0.00944925
0.00795776
0.00643665
0.00488426
0.00329739
0.00167132
0
0
0.00147769
0.00298902
0.00452275
0.0060681
0.00761517
0.00915518
0.0106805
0.0121848
0.0136625
0.0151088
0.0165195
0.0178908
0.0192192
0.0205014
0.0217343
0.0229148
0.0240401
0.0251075
0.0261144
0.0270584
0.0279372
0.0287487
0.029491
0.0301622
0.0307607
0.0312852
0.0317342
0.0321069
0.0324021
0.0326193
0.032758
0.0328177
0.0327983
0.0327
0.0325228
0.0322673
0.0319341
0.031524
0.0310379
0.030477
0.0298427
0.0291365
0.0283601
0.0275154
0.0266044
0.0256294
0.0245925
0.0234965
0.0223438
0.0211373
0.0198798
0.0185744
0.017224
0.0158319
0.014401
0.0129341
0.0114336
0.00990153
0.00833864
0.00674472
0.00511803
0.00345522
0.00175132
0
0
0.00154162
0.00311835
0.00471844
0.00633066
0.00794466
0.0095513
0.0111427
0.012712
0.0142536
0.0157625
0.0172342
0.0186649
0.0200508
0.0213884
0.0226746
0.0239062
0.0250802
0.0261938
0.0272443
0.0282291
0.029146
0.0299926
0.030767
0.0314672
0.0320917
0.0326388
0.0331073
0.033496
0.0338041
0.0340307
0.0341753
0.0342376
0.0342174
0.0341148
0.03393
0.0336635
0.0333158
0.0328879
0.0323808
0.0317957
0.0311339
0.0303972
0.0295872
0.028706
0.0277556
0.0267383
0.0256566
0.0245131
0.0233105
0.0220518
0.0207399
0.019378
0.0179693
0.0165169
0.0150241
0.0134937
0.0119284
0.0103299
0.00869944
0.00703655
0.00533948
0.00360472
0.00182709
0
0
0.00160185
0.00324016
0.00490276
0.00657796
0.00825502
0.00992442
0.011578
0.0132086
0.0148104
0.0163782
0.0179075
0.019394
0.020834
0.022224
0.0235604
0.0248401
0.02606
0.0272171
0.0283086
0.0293319
0.0302846
0.0311642
0.0319689
0.0326965
0.0333453
0.0339138
0.0344006
0.0348045
0.0351246
0.0353601
0.0355104
0.0355751
0.0355541
0.0354475
0.0352555
0.0349785
0.0346173
0.0341727
0.0336457
0.0330377
0.0323501
0.0315846
0.030743
0.0298273
0.0288398
0.0277828
0.0266588
0.0254707
0.0242211
0.0229133
0.0215501
0.020135
0.0186712
0.0171621
0.015611
0.0140208
0.0123943
0.0107335
0.00903928
0.00731143
0.00554806
0.00374553
0.00189847
0
0
0.00165821
0.00335417
0.00507527
0.00680942
0.00854548
0.0102736
0.0119853
0.0136734
0.0153315
0.0169545
0.0185376
0.0200764
0.0215671
0.023006
0.0243894
0.0257141
0.0269769
0.0281747
0.0293047
0.030364
0.0313502
0.0322608
0.0330937
0.033847
0.0345186
0.0351071
0.0356111
0.0360292
0.0363605
0.0366043
0.0367599
0.0368269
0.0368052
0.0366948
0.036496
0.0362093
0.0358354
0.0353751
0.0348296
0.0342002
0.0334884
0.032696
0.0318248
0.0308769
0.0298546
0.0287604
0.0275969
0.0263669
0.0250734
0.0237195
0.0223084
0.0208435
0.0193282
0.017766
0.0161603
0.0145142
0.0128304
0.0111111
0.00935734
0.0075687
0.00574328
0.00387732
0.00196527
0
0
0.00171058
0.0034601
0.00523556
0.00702447
0.00881536
0.0105981
0.0123639
0.0141052
0.0158157
0.01749
0.019123
0.0207104
0.0222482
0.0237325
0.0251597
0.0265262
0.0278289
0.0290645
0.0302301
0.0313229
0.0323402
0.0332797
0.0341389
0.0349159
0.0356088
0.0362159
0.0367357
0.0371671
0.0375089
0.0377603
0.0379208
0.0379899
0.0379675
0.0378536
0.0376486
0.0373528
0.0369671
0.0364923
0.0359296
0.0352803
0.0345461
0.0337286
0.0328298
0.031852
0.0307974
0.0296687
0.0284684
0.0271996
0.0258653
0.0244686
0.0230129
0.0215018
0.0199386
0.0183271
0.0166706
0.0149725
0.0132356
0.0114621
0.00965285
0.00780773
0.00592466
0.00399977
0.00202733
0
0
0.00175883
0.0035577
0.00538323
0.0072226
0.009064
0.010897
0.0127126
0.014503
0.0162618
0.0179833
0.0196624
0.0212946
0.0228758
0.0244019
0.0258693
0.0272744
0.0286138
0.0298843
0.0310828
0.0322064
0.0332524
0.0342183
0.0351018
0.0359007
0.0366131
0.0372373
0.0377719
0.0382154
0.0385668
0.0388254
0.0389904
0.0390614
0.0390384
0.0389213
0.0387105
0.0384064
0.0380098
0.0375216
0.036943
0.0362754
0.0355204
0.0346799
0.0337558
0.0327504
0.0316661
0.0305055
0.0292714
0.0279668
0.0265948
0.0251587
0.023662
0.0221082
0.020501
0.018844
0.0171408
0.0153949
0.013609
0.0117853
0.00992512
0.00802795
0.00609177
0.00411259
0.00208452
0
0
0.00180284
0.00364672
0.00551793
0.00740332
0.00929081
0.0111697
0.0130307
0.0148659
0.0166687
0.0184333
0.0201544
0.0218274
0.0234482
0.0250125
0.0265166
0.0279569
0.0293298
0.0306321
0.0318606
0.0330123
0.0340845
0.0350746
0.0359801
0.036799
0.0375293
0.0381691
0.038717
0.0391716
0.0395319
0.0397969
0.039966
0.0400389
0.0400153
0.0398952
0.0396791
0.0393674
0.0389609
0.0384605
0.0378674
0.0371831
0.0364093
0.0355477
0.0346005
0.0335699
0.0324584
0.0312688
0.0300038
0.0286666
0.0272603
0.0257883
0.0242541
0.0226614
0.021014
0.0193155
0.0175698
0.0157801
0.0139495
0.0120802
0.0101735
0.00822883
0.0062442
0.0042155
0.00213668
0
0
0.0018425
0.00372696
0.00563934
0.00756622
0.00949523
0.0114154
0.0133174
0.015193
0.0170355
0.0188388
0.0205978
0.0223077
0.0239641
0.0255629
0.0271001
0.028572
0.0299752
0.0313061
0.0325616
0.0337386
0.0348344
0.0358463
0.0367718
0.0376087
0.038355
0.0390089
0.0395689
0.0400335
0.0404017
0.0406725
0.0408454
0.0409198
0.0408957
0.040773
0.0405522
0.0402336
0.0398181
0.0393067
0.0387006
0.0380013
0.0372104
0.0363298
0.0353618
0.0343085
0.0331726
0.0319568
0.030664
0.0292973
0.0278601
0.0263557
0.0247878
0.0231601
0.0214764
0.0197405
0.0179563
0.0161273
0.0142564
0.012346
0.0103973
0.00840988
0.00638159
0.00430825
0.00218369
0
0
0.00187773
0.00379822
0.00574717
0.00771088
0.00967678
0.0116337
0.013572
0.0154835
0.0173612
0.019199
0.0209917
0.0227342
0.0244223
0.0260516
0.0276182
0.0291183
0.0305483
0.0319047
0.0331842
0.0343837
0.0355005
0.0365317
0.0374749
0.0383278
0.0390884
0.0397548
0.0403254
0.0407989
0.0411741
0.0414502
0.0416263
0.0417022
0.0416776
0.0415526
0.0413275
0.0410029
0.0405794
0.0400582
0.0394405
0.0387278
0.0379218
0.0370244
0.0360379
0.0349645
0.0338069
0.0325678
0.0312503
0.0298575
0.0283928
0.0268596
0.0252617
0.0236029
0.021887
0.020118
0.0182997
0.0164356
0.014529
0.0125821
0.0105961
0.00857068
0.00650361
0.00439062
0.00222544
0
0
0.00190844
0.00386033
0.00584115
0.00783697
0.00983501
0.0118239
0.013794
0.0157367
0.0176451
0.019513
0.0213349
0.023106
0.0248216
0.0264776
0.0280698
0.0295945
0.0310478
0.0324264
0.0337268
0.034946
0.036081
0.037129
0.0380877
0.0389545
0.0397276
0.0404049
0.0409848
0.0414661
0.0418474
0.042128
0.042307
0.0423841
0.0423591
0.0422321
0.0420033
0.0416734
0.041243
0.0407133
0.0400855
0.0393611
0.0385419
0.0376299
0.0366272
0.0355362
0.0343597
0.0331004
0.0317613
0.0303457
0.028857
0.0272988
0.0256748
0.0239888
0.0222449
0.0204469
0.0185989
0.0167044
0.0147666
0.0127878
0.0107694
0.00871083
0.00660995
0.00446242
0.00226183
0
0
0.00193455
0.00391313
0.00592105
0.00794418
0.00996956
0.0119857
0.0139827
0.015952
0.0178865
0.0197799
0.0216268
0.0234221
0.0251612
0.0268398
0.0284538
0.0299993
0.0314726
0.03287
0.0341882
0.035424
0.0365746
0.037637
0.0386087
0.0394874
0.040271
0.0409576
0.0415455
0.0420333
0.0424199
0.0427043
0.0428858
0.0429639
0.0429386
0.0428098
0.0425779
0.0422435
0.0418072
0.0412702
0.0406339
0.0398996
0.0390692
0.0381447
0.0371282
0.0360224
0.0348297
0.0335532
0.0321958
0.0307609
0.0292518
0.0276723
0.026026
0.024317
0.0225492
0.0207267
0.0188533
0.0169329
0.0149686
0.0129628
0.0109167
0.00882999
0.00670038
0.00452347
0.00229277
0
0
0.00195599
0.00395652
0.00598669
0.00803225
0.0100801
0.0121186
0.0141377
0.0161288
0.0180848
0.0199992
0.0218665
0.0236817
0.0254401
0.0271374
0.0287693
0.0303319
0.0318215
0.0332344
0.0345672
0.0358168
0.03698
0.0380542
0.0390367
0.0399252
0.0407175
0.0414117
0.0420061
0.0424993
0.0428902
0.0431777
0.0433612
0.0434402
0.0434146
0.0432844
0.04305
0.0427118
0.0422707
0.0417278
0.0410843
0.0403419
0.0395023
0.0385675
0.0375399
0.0364217
0.0352159
0.0339252
0.0325527
0.0311019
0.0295761
0.027979
0.0263146
0.0245866
0.0227992
0.0209564
0.0190623
0.0171206
0.0151345
0.0131065
0.0110377
0.00892789
0.00677466
0.00457361
0.00231819
0
0
0.00197273
0.00399037
0.00603791
0.00810097
0.0101663
0.0122222
0.0142586
0.0162668
0.0182395
0.0201703
0.0220536
0.0238843
0.0256578
0.0273696
0.0290154
0.0305914
0.0320937
0.0335187
0.0348629
0.0361232
0.0372964
0.0383798
0.0393707
0.0402668
0.0410658
0.041766
0.0423655
0.0428629
0.0432571
0.0435471
0.0437322
0.0438119
0.0437861
0.0436548
0.0434183
0.0430772
0.0426323
0.0420848
0.0414358
0.0406871
0.0398403
0.0388975
0.037861
0.0367333
0.0355172
0.0342154
0.0328312
0.031368
0.0298291
0.0282184
0.0265397
0.0247969
0.0229942
0.0211357
0.0192254
0.0172671
0.015264
0.0132186
0.0111322
0.00900427
0.00683262
0.00461274
0.00233803
0
0
0.00198471
0.0040146
0.00607459
0.00815018
0.0102281
0.0122965
0.0143452
0.0163656
0.0183503
0.0202928
0.0221876
0.0240294
0.0258136
0.0275358
0.0291917
0.0307772
0.0322887
0.0337223
0.0350747
0.0363426
0.037523
0.0386129
0.0396099
0.0405114
0.0413153
0.0420197
0.0426228
0.0431233
0.0435199
0.0438116
0.0439978
0.044078
0.044052
0.0439199
0.043682
0.0433389
0.0428913
0.0423404
0.0416875
0.0409342
0.0400823
0.0391338
0.038091
0.0369565
0.0357329
0.0344232
0.0330307
0.0315585
0.0300103
0.0283898
0.0267009
0.0249476
0.0231339
0.0212641
0.0193422
0.017372
0.0153567
0.0132989
0.0111998
0.00905896
0.00687412
0.00464076
0.00235223
0
0
0.00199191
0.00402917
0.00609663
0.00817975
0.0102652
0.0123411
0.0143973
0.016425
0.0184169
0.0203665
0.0222681
0.0241166
0.0259073
0.0276357
0.0292976
0.0308889
0.0324058
0.0338446
0.035202
0.0364745
0.0376591
0.038753
0.0397536
0.0406583
0.0414652
0.0421721
0.0427775
0.0432798
0.0436778
0.0439706
0.0441575
0.0442379
0.0442119
0.0440793
0.0438405
0.0434961
0.0430469
0.042494
0.0418388
0.0410827
0.0402277
0.0392758
0.0382292
0.0370905
0.0358625
0.0345481
0.0331505
0.031673
0.0301192
0.0284928
0.0267978
0.0250381
0.0232178
0.0213413
0.0194124
0.017435
0.0154125
0.0133472
0.0112404
0.00909183
0.00689906
0.0046576
0.00236076
0
0
0.00199431
0.00403403
0.00610398
0.00818961
0.0102776
0.012356
0.0144146
0.0164448
0.0184391
0.020391
0.0222949
0.0241457
0.0259385
0.027669
0.0293329
0.0309261
0.0324449
0.0338855
0.0352444
0.0365185
0.0377045
0.0387997
0.0398015
0.0407074
0.0415152
0.042223
0.0428291
0.0433319
0.0437305
0.0440236
0.0442107
0.0442913
0.0442652
0.0441324
0.0438934
0.0435485
0.0430988
0.0425453
0.0418892
0.0411323
0.0402762
0.0393231
0.0382753
0.0371353
0.0359058
0.0345898
0.0331905
0.0317112
0.0301555
0.0285272
0.0268301
0.0250683
0.0232459
0.021367
0.0194358
0.017456
0.015431
0.0133633
0.011254
0.00910279
0.00690738
0.00466322
0.00236361
0
0
0.00199191
0.00402917
0.00609663
0.00817975
0.0102652
0.0123411
0.0143973
0.016425
0.0184169
0.0203665
0.0222681
0.0241166
0.0259073
0.0276357
0.0292976
0.0308889
0.0324058
0.0338446
0.035202
0.0364745
0.0376591
0.038753
0.0397536
0.0406583
0.0414652
0.0421721
0.0427775
0.0432798
0.0436778
0.0439706
0.0441575
0.0442379
0.0442119
0.0440793
0.0438405
0.0434961
0.0430469
0.042494
0.0418388
0.0410827
0.0402277
0.0392758
0.0382292
0.0370905
0.0358625