# vtk DataFile Version 3.0
3D field
ASCII
DATASET STRUCTURED_POINTS
DIMENSIONS 65 65 65
ORIGIN 0 0 0
SPACING 0.015625 0.015625 0.015625
POINT_DATA 274625
SCALARS temperature double 1
LOOKUP_TABLE default
0
0
0
0
0
0
0
0
0
0
0
0
0
0
0
0
0
0
0
0
0
0
0
0
0
0
0
0
0
0
0
0
0
0
0
0
0
0
0
0
0
0
0
0
0
0
0
0
0
0
0
0
0
0
0
0
0
0
0
0
0
0
0
0
0
0
0
0
0
0
0
0
0
0
0
0
0
0
0
0
0
0
0
0
0
0
0
0
0
0
0
0
0
0
0
0
0
0
0
0
0
0
0
0
0
0
0
0
0
0
0
0
0
0
0
0
0
0
0
0
0
0
0
0
0
0
0
0
0
0
0
0
0
0
0
0
0
0
0
0
0
0
0
0
0
0
0
0
0
0
0
0
0
0
0
0
0
0
0
0
0
0
0
0
0
0
0
0
0
0
0
0
0
0
0
0
0
0
0
0
0
0
0
0
0
0
0
0
0
0
0
0
0
0
0
0
0
0
0
0
0
0
0
0
0
0
0
0
0
0
0
0
0
0
0
0
0
0
0
0
0
0
0
0
0
0
0
0
0
0
0
0
0
0
0
0
0
0
0
0
0
0
0
0
0
0
0
0
0
0
0
0
0
0
0
0
0
0
0
0
0
0
0
0
0
0
0
0
0
0
0
0
0
0
0
0
0
0
0
0
0
0
0
0
0
0
0
0
0
0
0
0
0
0
0
0
0
0
0
0
0
0
0
0
0
0
0
0
0
0
0
0
0
0
0
0
0
0
0
0
0
0
0
0
0
0
0
0
0
0
0
0
0
0
0
0
0
0
0
0
0
0
0
0
0
0
0
0
0
0
0
0
0
0
0
0
0
0
0
0
0
0
0
0
0
0
0
0
0
0
0
0
0
0
0
0
0
0
0
0
0
0
0
0
0
0
0
0
0
0
0
0
0
0
0
0
0
0
0
0
0
0
0
0
0
0
0
0
0
0
0
0
0
0
0
0
0
0
0
0
0
0
0
0
0
0
0
0
0
0
0
0
0
0
0
0
0
0
0
0
0
0
0
0
0
0
0
0
0
0
0
0
0
0
0
0
0
0
0
0
0
0
0
0
0
0
0
0
0
0
0
0
0
0
0
0
0
0
0
0
0
0
0
0
0
0
0
0
0
0
0
0
0
0
0
0
0
0
0
0
0
0
0
0
0
0
0
0
0
0
0
0
0
0
0
0
0
0
0
0
0
0
0
0
0
0
0
0
0
0
0
0
0
0
0
0
0
0
0
0
0
0
0
0
0
0
0
0
0
0
0
0
0
0
0
0
0
0
0
0
0
0
0
0
0
0
0
0
0
0
0
0
0
0
0
0
0
0
0
0
0
0
0
0
0
0
0
0
0
0
0
0
0
0
0
0
0
0
0
0
0
0
0
0
0
0
0
0
0
0
0
0
0
0
0
0
0
0
0
0
0
0
0
0
0
0
0
0
0
0
0
0
0
0
0
0
0
0
0
0
0
0
0
0
0
0
0
0
0
0
0
0
0
0
0
0
0
0
0
0
0
0
0
0
0
0
0
0
0
0
0
0
0
0
0
0
0
0
0
0
0
0
0
0
0
0
0
0
0
0
0
0
0
0
0
0
0
0
0
0
0
0
0
0
0
0
0
0
0
0
0
0
0
0
0
0
0
0
0
0
0
0
0
0
0
0
0
0
0
0
0
0
0
0
0
0
0
0
0
0
0
0
0
0
0
0
0
0
0
0
0
0
0
0
0
0
0
0
0
0
0
0
0
0
0
0
0
0
0
0
0
0
0
0
0
0
0
0
0
0
0
0
0
0
0
0
0
0
0
0
0
0
0
0
0
0
0
0
0
0
0
0
0
0
0
0
0
0
0
0
0
0
0
0
0
0
0
0
0
0
0
0
0
0
0
0
0
0
0
0
0
0
0
0
0
0
0
0
0
0
0
0
0
0
0
0
0
0
0
0
0
0
0
0
0
0
0
0
0
0
0
0
0
0
0
0
0
0
0
0
0
0
0
0
0
0
0
0
0
0
0
0
0
0
0
0
0
0
0
0
0
0
0
0
0
0
0
0
0
0
0
0
0
0
0
0
0
0
0
0
0
0
0
0
0
0
0
0
0
0
0
0
0
0
0
0
0
0
0
0
0
0
0
0
0
0
0
0
0
0
0
0
0
0
0
0
0
0
0
0
0
0
0
0
0
0
0
0
0
0
0
0
0
0
0
0
0
0
0
0
0
0
0
0
0
0
0
0
0
0
0
0
0
0
0
0
0
0
0
0
0
0
0
0
0
0
0
0
0
0
0
0
0
0
0
0
0
0
0
0
0
0
0
0
0
0
0
0
0
0
0
0
0
0
0
0
0
0
0
0
0
0
0
0
0
0
0
0
0
0
0
0
0
0
0
0
0
0
0
0
0
0
0
0
0
0
0
0
0
0
0
0
0
0
0
0
0
0
0
0
0
0
0
0
0
0
0
0
0
0
0
0
0
0
0
0
0
0
0
0
0
0
0
0
0
0
0
0
0
0
0
0
0
0
0
0
0
0
0
0
0
0
0
0
0
0
0
0
0
0
0
0
0
0
0
0
0
0
0
0
0
0
0
0
0
0
0
0
0
0
0
0
0
0
0
0
0
0
0
0
0
0
0
0
0
0
0
0
0
0
0
0
0
0
0
0
0
0
0
0
0
0
0
0
0
0
0
0
0
0
0
0
0
0
0
0
0
0
0
0
0
0
0
0
0
0
0
0
0
0
0
0
0
0
0
0
0
0
0
0
0
0
0
0
0
0
0
0
0
0
0
0
0
0
0
0
0
0
0
0
0
0
0
0
0
0
0
0
0
0
0
0
0
0
0
0
0
0
0
0
0
0
0
0
0
0
0
0
0
0
0
0
0
0
0
0
0
0
0
0
0
0
0
0
0
0
0
0
0
0
0
0
0
0
0
0
0
0
0
0
0
0
0
0
0
0
0
0
0
0
0
0
0
0
0
0
0
0
0
0
0
0
0
0
0
0
0
0
0
0
0
0
0
0
0
0
0
0
0
0
0
0
0
0
0
0
0
0
0
0
0
0
0
0
0
0
0
0
0
0
0
0
0
0
0
0
0
0
0
0
0
0
0
0
0
0
0
0
0
0
0
0
0
0
0
0
0
0
0
0
0
0
0
0
0
0
0
0
0
0
0
0
0
0
0
0
0
0
0
0
0
0
0
0
0
0
0
0
0
0
0
0
0
0
0
0
0
0
0
0
0
0
0
0
0
0
0
0
0
0
0
0
0
0
0
0
0
0
0
0
0
0
0
0
0
0
0
0
0
0
0
0
0
0
0
0
0
0
0
0
0
0
0
0
0
0
0
0
0
0
0
0
0
0
0
0
0
0
0
0
0
0
0
0
0
0
0
0
0
0
0
0
0
0
0
0
0
0
0
0
0
0
0
0
0
0
0
0
0
0
0
0
0
0
0
0
0
0
0
0
0
0
0
0
0
0
0
0
0
0
0
0
0
0
0
0
0
0
0
0
0
0
0
0
0
0
0
0
0
0
0
0
0
0
0
0
0
0
0
0
0
0
0
0
0
0
0
0
0
0
0
0
0
0
0
0
0
0
0
0
0
0
0
0
0
0
0
0
0
0
0
0
0
0
0
0
0
0
0
0
0
0
0
0
0
0
0
0
0
0
0
0
0
0
0
0
0
0
0
0
0
0
0
0
0
0
0
0
0
0
0
0
0
0
0
0
0
0
0
0
0
0
0
0
0
0
0
0
0
0
0
0
0
0
0
0
0
0
0
0
0
0
0
0
0
0
0
0
0
0
0
0
0
0
0
0
0
0
0
0
0
0
0
0
0
0
0
0
0
0
0
0
0
0
0
0
0
0
0
0
0
0
0
0
0
0
0
0
0
0
0
0
0
0
0
0
0
0
0
0
0
0
0
0
0
0
0
0
0
0
0
0
0
0
0
0
0
0
0
0
0
0
0
0
0
0
0
0
0
0
0
0
0
0
0
0
0
0
0
0
0
0
0
0
0
0
0
0
0
0
0
0
0
0
0
0
0
0
0
0
0
0
0
0
0
0
0
0
0
0
0
0
0
0
0
0
0
0
0
0
0
0
0
0
0
0
0
0
0
0
0
0
0
0
0
0
0
0
0
0
0
0
0
0
0
0
0
0
0
0
0
0
0
0
0
0
0
0
0
0
0
0
0
0
0
0
0
0
0
0
0
0
0
0
0
0
0
0
0
0
0
0
0
0
0
0
0
0
0
0
0
0
0
0
0
0
0
0
0
0
0
0
0
0
0
0
0
0
0
0
0
0
0
0
0
0
0
0
0
0
0
0
0
0
0
0
0
0
0
0
0
0
0
0
0
0
0
0
0
0
0
0
0
0
0
0
0
0
0
0
0
0
0
0
0
0
0
0
0
0
0
0
0
0
0
0
0
0
0
0
0
0
0
0
0
0
0
0
0
0
0
0
0
0
0
0
0
0
0
0
0
0
0
0
0
0
0
0
0
0
0
0
0
0
0
0
0
0
0
0
0
0
0
0
0
0
0
0
0
0
0
0
0
0
0
0
0
0
0
0
0
0
0
0
0
0
0
0
0
0
0
0
0
0
0
0
0
0
0
0
0
0
0
0
0
0
0
0
0
0
0
0
0
0
0
0
0
0
0
0
0
0
0
0
0
0
0
0
0
0
0
0
0
0
0
0
0
0
0
0
0
0
0
0
0
0
0
0
0
0
0
0
0
0
0
0
0
0
0
0
0
0
0
0
0
0
0
0
0
0
0
0
0
0
0
0
0
0
0
0
0
0
0
0
0
0
0
0
0
0
0
0
0
0
0
0
0
0
0
0
0
0
0
0
0
0
0
0
0
0
0
0
0
0
0
0
0
0
0
0
0
0
0
0
0
0
0
0
0
0
0
0
0
0
0
0
0
0
0
0
0
0
0
0
0
0
0
0
0
0
0
0
0
0
0
0
0
0
0
0
0
0
0
0
0
0
0
0
0
0
0
0
0
0
0
0
0
0
0
0
0
0
0
0
0
0
0
0
0
0
0
0
0
0
0
0
0
0
0
0
0
0
0
0
0
0
0
0
0
0
0
0
0
0
0
0
0
0
0
0
0
0
0
0
0
0
0
0
0
0
0
0
0
0
0
0
0
0
0
0
0
0
0
0
0
0
0
0
0
0
0
0
0
0
0
0
0
0
0
0
0
0
0
0
0
0
0
0
0
0
0
0
0
0
0
0
0
0
0
0
0
0
0
0
0
0
0
0
0
0
0
0
0
0
0
0
0
0
0
0
0
0
0
0
0
0
0
0
0
0
0
0
0
0
0
0
0
0
0
0
0
0
0
0
0
0
0
0
0
0
0
0
0
0
0
0
0
0
0
0
0
0
0
0
0
0
0
0
0
0
0
0
0
0
0
0
0
0
0
0
0
0
0
0
0
0
0
0
0
0
0
0
0
0
0
0
0
0
0
0
0
0
0
0
0
0
0
0
0
0
0
0
0
0
0
0
0
0
0
0
0
0
0
0
0
0
0
0
0
0
0
0
0
0
0
0
0
0
0
0
0
0
0
0
0
0
0
0
0
0
0
0
0
0
0
0
0
0
0
0
0
0
0
0
0
0
0
0
0
0
0
0
0
0
0
0
0
0
0
0
0
0
0
0
0
0
0
0
0
0
0
0
0
0
0
0
0
0
0
0
0
0
0
0
0
0
0
0
0
0
0
0
0
0
0
0
0
0
0
0
0
0
0
0
0
0
0
0
0
0
0
0
0
0
0
0
0
0
0
0
0
0
0
0
0
0
0
0
0
0
0
0
0
0
0
0
0
0
0
0
0
0
0
0
0
0
0
0
0
0
0
0
0
0
0
0
0
0
0
0
0
0
0
0
0
0
0
0
0
0
0
0
0
0
0
0
0
0
0
0
0
0
0
0
0
0
0
0
0
0
0
0
0
0
0
0
0
0
0
0
0
0
0
0
0
0
0
0
0
0
0
0
0
0
0
0
0
0
0
0
0
0
0
0
0
0
0
0
0
0
0
0
0
0
0
0
0
0
0
0
0
0
0
0
0
0
0
0
0
0
0
0
0
0
0
0
0
0
0
0
0
0
0
0
0
0
0
0
0
0
0
0
0
0
0
0
0
0
0
0
0
0
0
0
0
0
0
0
0
0
0
0
0
0
0
0
0
0
0
0
0
0
0
0
0
0
0
0
0
0
0
0
0
0
0
0
0
0
0
0
0
0
0
0
0
0
0
0
0
0
0
0
0
0
0
0
0
0
0
0
0
0
0
0
0
0
0
0
0
0
0
0
0
0
0
0
0
0
0
0
0
0
0
0
0
0
0
0
0
0
0
0
0
0
0
0
0
0
0
0
0
0
0
0
0
0
0
0
0
0
0
0
0
0
0
0
0
0
0
0
0
0
0
0
0
0
0
0
0
0
0
0
0
0
0
0
0
0
0
0
0
0
0
0
0
0
0
0
0
0
0
0
0
0
0
0
0
0
0
0
0
0
0
0
0
0
0
0
0
0
0
0
0
0
0
0
0
0
0
0
0
0
0
0
0
0
0
0
0
0
0
0
0
0
0
0
0
0
0
0
0
0
0
0
0
0
0
0
0
0
0
0
0
0
0
0
0
0
0
0
0
0
0
0
0
0
0
0
0
0
0
0
0
0
0
0
0
0
0
0
0
0
0
0
0
0
0
0
0
0
0
0
0
0
0
0
0
0
0
0
0
0
0
0
0
0
0
0
0
0
0
0
0
0
0
0
0
0
0
0
0
0
0
0
0
0
0
0
0
0
0
0
0
0
0
0
0
0
0
0
0
0
0
0
0
0
0
0
0
0
0
0
0
0
0
0
0
0
0
0
0
0
0
0
0
0
0
0
0
0
0
0
0
0
0
0
0
0
0
0
0
0
0
0
0
0
0
0
0
0
0
0
0
0
0
0
0
0
0
0
0
0
0
0
0
0
0
0
0
0
0
0
0
0
0
0
0
0
0
0
0
0
0
0
0
0
0
0
0
0
0
0
0
0
0
0
0
0
0
0
0
0
0
0
0
0
0
0
0
0
0
0
0
0
0
0
0
0
0
0
0
0
0
0
0
0
0
0
0
0
0
0
0
0
0
0
0
0
0
0
0
0
0
0
0
0
0
0
0
0
0
0
0
0
0
0
0
0
0
0
0
0
0
0
0
0
0
0
0
0
0
0
0
0
0
0
0
0
0
0
0
0
0
0
0
0
0
0
0
0
0
0
0
0
0
0
0
0
0
0
0
0
0
0
0
0
0
0
0
0
0
0
0
0
0
0
0
0
0
0
0
0
0
0
0
0
0
0
0
0
0
0
0
0
0
0
0
0
0
0
0
0
0
0
0
0
0
0
0
0
0
0
0
0
0
0
0
0
0
0
0
0
0
0
0
0
0
0
0
0
0
0
0
0
0
0
0
0
0
0
0
0
0
0
0
0
0
0
0
0
0
0
0
0
0
0
0
0
0
0
0
0
0
0
0
0
0
0
0
0
0
0
0
0
0
0
0
0
0
0
0
0
0
0
0
0
0
0
0
0
0
0
0
0
0
0
0
0
0
0
0
0
0
0
0
0
0
0
0
0
0
0
0
0
0
0
0
0
0
0
0
0
0
0
0
0
0
0
0
0
0
0
0
0
0
0
0
0
0
0
0
0
0
0
0
0
0
0
0
0
0
0
0
0
0
0
0
0
0
0
0
0
0
0
0
0
0
0
0
0
0
0
0
0
0
0
0
0
0
0
0
0
0
0
0
0
0
0
0
0
0
0
0
0
0
0
0
0
0
0
0
0
0
0
0
0
0
0
0
0
0
0
0
0
0
0
0
0
0
0
0
0
0
0
0
0
0
0
0
0
0
0
0
0
0
0
0
0
0
0
0
0
0
0
0
0
0
0
0
0
0
0
0
0
0
0
0
0
0
0
0
0
0
0
0
0
0
0
0
0
0
0
0
0
0
0
0
0
0
0
0
0
0
0
0
0
0
0
0
0
0
0
0
0
0
0
0
0
0
0
0
0
0
0
0
0
0
0
0
0
0
0
0
0
0
0
0
0
0
0
0
0
0
0
0
0
0
0
0
0
0
0
0
0
0
0
0
0
0
0
0
0
0
0
0
0
0
0
0
0
0
0
0
0
0
0
0
0
0
0
0
0
0
0
0
0
0
0
0
0
0
0
0
0
0
0
0
0
0
0
0
0
0
0
0
0
0
0
0
0
0
0
0
0
0
0
0
0
0
0
0
0
0
0
0
0
0
0
0
0
0
0
0
0
0
0
0
0
0
0
0
0
0
0
0
0
0
0
0
0
0
0
0
0
0
0
0
0
0
0
0
0
0
0
0
0
0
0
0
0
0
0
0
0
0
0
0
0
0
0
0
0
0
0
0
0
0
0
0
0
0
0
0
0
0
0
0
0
0
0
0
0
0
0
0
0
0
0
0
0
0
0
0
0
0
0
0
0
0
0
0
0
0
0
0
0
0
0
0
0
0
0
0
0
0
0
0
0
0
0
0
0
0
0
0
0
0
0
0
0
0
0
0
0
0
0
0
0
0
0
0
0
0
0
0
0
0
0
0
0
0
0
0
0
0
0
0
0
0
0
0
0
0
0
0
0
0
0
0
0
0
0
0
0
0
0
0
0
0
0
0
0
0
0
0
0
0
0
0
0
0
0
0
0
0
0
0
0
0
0
0
0
0
0
0
0
0
0
0
0
0
0
0
0
0
0
0
0
0
0
0
0
0
0
0
0
0
0
0
0
0
0
0
0
0
0
0
0
0
0
0
0
0
0
0
0
0
0
0
0
0
0
0
0
0
0
0
0
0
0
0
0
0
0
0
0
0
0
0
0
0
0
0
0
0
0
0
0
0
0
0
0
0
0
0
0
0
0
0
0
0
0
0
0
0
0
0
0
0
0
0
0
0
0
0
0
0
0
0
0
0
0
0
0
0
0
0
0
0
0
0
0
0
0
0
0
0
0
0
0
0
0
0
0
0
0
0
0
0
0
0
0
0
0
0
0
0
0
0
0
0
0
0
0
0
0
0
0
0
0
0
0
0
0
0
0
0
0
0
0
0
0
0
0
0
0
0
0
0
0
0
0
0
0
0
0
0
0
0
0
0
0
0
0
0
0
0
0
0
0
0
0
0
0
0
0
0
0
0
0
0
0
0
0
0
0
0
0
0
0
0
0
0
0
0
0
0
0
0
0
0
0
0
0
0
0
0
0
0
0
0
0
0
0
0
0
0
0
0
0
0
0
0
0
0
0
0
0
0
0
0
0
0
0
0
0
0
0
0
0
0
0
0
0
0
0
0
0
0
0
0
0
0
0
0
0
0
0
0
0
0
0
0
0
0
0
0
0
0
0
0
0
0
0
0
0
0
0
0
0
0
0
0
0
0
0
0
0
0
0
0
0
0
0
0
0
0
0
0
0
0
0
0
0
0
0
0
0
0
0
0
0
0
0
0
0
0
0
0
0
0
0
0
0
0
0
0
0
0
0
0
0
0
0
0
0
0
0
0
0
0
0
0
0
0
0
0
0
0
0
0
0
0
0
0
0
0
0
0
0
0
0
0
0
0
0
0
0
0
0
0
0
0
0
0
0
0
0
0
0
0
0
0
0
0
0
0
0
0
0
0
0
0
0
0
0
0
0
0
0
0
0
0
0
0
0
0
0
0
0
0
8.69123e-05
0.000175956
0.000266611
0.000358353
0.000450665
0.000543054
0.000635052
0.000726228
0.000816184
0.000904562
0.000991037
0.00107532
0.00115714
0.00123625
0.00131244
0.00138551
0.00145525
0.0015215
0.0015841
0.00164288
0.0016977
0.00174844
0.00179496
0.00183717
0.00187494
0.0019082
0.00193686
0.00196086
0.00198013
0.00199463
0.00200432
0.00200919
0.00200922
0.0020044
0.00199476
0.00198031
0.0019611
0.00193715
0.00190854
0.00187534
0.00183761
0.00179546
0.00174898
0.00169829
0.0016435
0.00158475
0.00152219
0.00145594
0.00138618
0.00131305
0.00123672
0.00115734
0.00107508
0.000990066
0.000902435
0.000812287
0.000719694
0.000624692
0.000527269
0.000427366
0.000324872
0.000219624
0.000111416
0
0
0.000173615
0.000351488
0.00053258
0.000715842
0.000900245
0.0010848
0.00126857
0.00145071
0.0016304
0.00180694
0.00197969
0.00214804
0.00231148
0.00246952
0.00262172
0.00276767
0.002907
0.00303934
0.00316438
0.0032818
0.00339132
0.00349267
0.00358561
0.00366991
0.00374536
0.0038118
0.00386905
0.00391699
0.00395548
0.00398445
0.00400382
0.00401354
0.0040136
0.00400398
0.00398472
0.00395586
0.00391747
0.00386964
0.00381249
0.00374615
0.00367079
0.00358659
0.00349374
0.00339248
0.00328304
0.00316569
0.0030407
0.00290838
0.00276901
0.00262293
0.00247046
0.0023119
0.00214756
0.00197775
0.0018027
0.00162262
0.00143765
0.00124788
0.00105327
0.000853702
0.00064896
0.00043872
0.000222564
0
0
0.0002599
0.000526174
0.000797266
0.00107161
0.00134766
0.00162393
0.00189904
0.00217169
0.00244069
0.00270497
0.00296357
0.00321559
0.00346026
0.00369685
0.00392469
0.00414317
0.00435174
0.00454986
0.00473704
0.00491281
0.00507676
0.00522848
0.00536761
0.0054938
0.00560677
0.00570622
0.00579193
0.00586368
0.00592131
0.00596467
0.00599367
0.00600822
0.0060083
0.00599391
0.00596508
0.00592187
0.0058644
0.0057928
0.00570725
0.00560795
0.00549513
0.00536908
0.00523009
0.0050785
0.00491468
0.004739
0.0045519
0.0043538
0.00414518
0.0039265
0.00369824
0.00346088
0.00321488
0.00296066
0.00269861
0.00242904
0.00215215
0.00186806
0.00157673
0.00127798
0.000971486
0.000656758
0.000333175
0
0
0.000345558
0.000699592
0.00106003
0.00142479
0.00179182
0.00215915
0.00252493
0.00288744
0.0032451
0.00359649
0.00394031
0.0042754
0.0046007
0.00491526
0.0052182
0.00550869
0.005786
0.00604941
0.00629828
0.00653199
0.00674997
0.0069517
0.00713668
0.00730447
0.00745466
0.00758689
0.00770085
0.00779625
0.00787287
0.00793053
0.00796908
0.00798843
0.00798854
0.0079694
0.00793106
0.00787362
0.00779721
0.00770201
0.00758826
0.00745623
0.00730623
0.00713864
0.00695384
0.00675229
0.00653447
0.00630089
0.00605212
0.00578874
0.00551136
0.00522061
0.00491712
0.00460153
0.00427445
0.00393645
0.00358803
0.00322961
0.00286146
0.00248374
0.00209639
0.00169918
0.00129167
0.000873214
0.000442984
0
0
0.000430385
0.000871324
0.00132024
0.00177454
0.00223167
0.00268917
0.00314474
0.00359624
0.00404169
0.00447934
0.00490756
0.0053249
0.00573006
0.00612184
0.00649914
0.00686094
0.00720632
0.0075344
0.00784435
0.00813543
0.00840693
0.00865817
0.00888856
0.00909753
0.00928459
0.00944929
0.00959122
0.00971004
0.00980547
0.00987728
0.00992529
0.00994939
0.00994953
0.00992569
0.00987794
0.0098064
0.00971123
0.00959266
0.00945099
0.00928655
0.00909973
0.008891
0.00866084
0.00840981
0.00813852
0.00784761
0.00753777
0.00720974
0.00686426
0.00650214
0.00612415
0.00573109
0.00532372
0.00490275
0.0044688
0.00402239
0.00356388
0.00309344
0.002611
0.00211629
0.00160874
0.00108757
0.000551725
0
0
0.000514174
0.00104096
0.00157727
0.00212002
0.00266614
0.00321271
0.00375697
0.00429637
0.00482855
0.00535139
0.00586298
0.00636158
0.00684562
0.00731367
0.00776442
0.00819666
0.00860928
0.00900123
0.00937153
0.00971928
0.0100436
0.0103438
0.010619
0.0108687
0.0110922
0.0112889
0.0114585
0.0116004
0.0117144
0.0118002
0.0118576
0.0118864
0.0118865
0.0118581
0.011801
0.0117156
0.0116019
0.0114602
0.011291
0.0110945
0.0108713
0.0106219
0.010347
0.0100471
0.00972296
0.00937542
0.00900526
0.00861336
0.00820063
0.007768
0.00731643
0.00684684
0.00636016
0.00585724
0.00533881
0.00480549
0.00425772
0.00369568
0.00311933
0.0025283
0.00192194
0.0012993
0.000659138
0
0
0.000596724
0.00120808
0.0018305
0.00246038
0.00309419
0.00372851
0.00436016
0.00498615
0.00560377
0.00621056
0.00680429
0.00738293
0.00794468
0.00848788
0.00901099
0.00951263
0.0099915
0.0104464
0.0108761
0.0112797
0.0116561
0.0120045
0.0123239
0.0126136
0.012873
0.0131014
0.0132981
0.0134629
0.0135952
0.0136948
0.0137613
0.0137947
0.0137949
0.0137619
0.0136957
0.0135965
0.0134645
0.0133001
0.0131037
0.0128757
0.0126167
0.0123273
0.0120082
0.0116601
0.011284
0.0108806
0.0104511
0.00999624
0.00951724
0.00901516
0.00849108
0.0079461
0.00738129
0.00679761
0.00619595
0.00557701
0.00494129
0.00428902
0.00362013
0.00293422
0.00223051
0.0015079
0.000764962
0
0
0.000677837
0.0013723
0.00207933
0.00279483
0.00351478
0.00423533
0.00495283
0.00566392
0.0063655
0.00705476
0.00772919
0.0083865
0.00902461
0.00964164
0.0102359
0.0108057
0.0113496
0.0118664
0.0123545
0.012813
0.0132406
0.0136362
0.0139991
0.0143282
0.0146228
0.0148822
0.0151058
0.0152929
0.0154432
0.0155563
0.0156319
0.0156699
0.0156701
0.0156325
0.0155573
0.0154447
0.0152948
0.015108
0.0148849
0.0146259
0.0143317
0.0140029
0.0136404
0.0132451
0.0128178
0.0123596
0.0118717
0.011355
0.0108109
0.0102406
0.00964527
0.00902622
0.00838463
0.00772162
0.00703817
0.0063351
0.00561296
0.00487203
0.00411222
0.00333307
0.0025337
0.00171287
0.000868944
0
0
0.000757317
0.00153321
0.00232314
0.00312253
0.00392691
0.00473195
0.00553358
0.00632804
0.00711188
0.00788197
0.00863548
0.00936986
0.0100828
0.0107722
0.0114361
0.0120727
0.0126805
0.0132577
0.0138032
0.0143154
0.0147931
0.0152352
0.0156406
0.0160083
0.0163374
0.0166272
0.016877
0.0170861
0.017254
0.0173803
0.0174648
0.0175072
0.0175075
0.0174655
0.0173815
0.0172556
0.0170882
0.0168795
0.0166302
0.0163409
0.0160122
0.0156449
0.0152399
0.0147982
0.0143208
0.0138089
0.0132637
0.0126865
0.0120786
0.0114414
0.0107762
0.0100846
0.00936777
0.00862702
0.00786344
0.00707792
0.00627111
0.0054433
0.0045944
0.00372389
0.00283079
0.00191371
0.000970832
0
0
0.000834973
0.00169042
0.00256135
0.00344272
0.00432958
0.00521716
0.00610099
0.00697692
0.00784114
0.00869019
0.00952097
0.0103306
0.0111167
0.0118768
0.0126087
0.0133107
0.0139807
0.0146172
0.0152185
0.0157833
0.01631
0.0167974
0.0172444
0.0176498
0.0180127
0.0183322
0.0186076
0.0188381
0.0190232
0.0191625
0.0192557
0.0193024
0.0193027
0.0192565
0.0191638
0.019025
0.0188404
0.0186104
0.0183355
0.0180165
0.0176541
0.0172491
0.0168026
0.0163156
0.0157892
0.0152249
0.0146237
0.0139873
0.0133171
0.0126146
0.0118812
0.0111187
0.0103283
0.00951164
0.00866975
0.0078037
0.00691416
0.00600146
0.00506551
0.00410573
0.00312106
0.00210995
0.00107038
0
0
0.000910617
0.00184357
0.0027934
0.00375461
0.00472181
0.00568981
0.00665371
0.00760899
0.0085515
0.00947748
0.0103835
0.0112665
0.0121238
0.0129527
0.013751
0.0145165
0.0152473
0.0159414
0.0165973
0.0172131
0.0177876
0.0183191
0.0188066
0.0192488
0.0196445
0.019993
0.0202933
0.0205447
0.0207466
0.0208986
0.0210001
0.0210511
0.0210514
0.021001
0.0209
0.0207486
0.0205472
0.0202964
0.0199966
0.0196487
0.0192534
0.0188118
0.0183248
0.0177937
0.0172197
0.0166041
0.0159486
0.0152545
0.0145236
0.0137574
0.0129576
0.012126
0.011264
0.0103733
0.00945519
0.00851067
0.00754054
0.00654516
0.00552442
0.00447769
0.00340382
0.0023011
0.00116735
0
0
0.000984067
0.00199227
0.00301871
0.00405746
0.00510267
0.00614875
0.0071904
0.00822273
0.00924127
0.0102419
0.0112211
0.0121753
0.0131017
0.0139975
0.0148602
0.0156874
0.0164771
0.0172273
0.017936
0.0186015
0.0192223
0.0197968
0.0203235
0.0208014
0.0212291
0.0216056
0.0219302
0.0222018
0.02242
0.0225842
0.022694
0.0227491
0.0227494
0.0226949
0.0225858
0.0224222
0.0222046
0.0219335
0.0216095
0.0212335
0.0208064
0.0203291
0.0198029
0.0192289
0.0186086
0.0179434
0.017235
0.0164849
0.015695
0.014867
0.0140028
0.013104
0.0121726
0.0112101
0.0102178
0.00919714
0.00814876
0.00707309
0.00597002
0.00483886
0.00367837
0.0024867
0.00126151
0
0
0.00105515
0.00213617
0.00323676
0.00435053
0.00547124
0.00659287
0.00770976
0.00881667
0.00990877
0.0109817
0.0120316
0.0130547
0.014048
0.0150085
0.0159335
0.0168205
0.0176673
0.0184716
0.0192315
0.0199451
0.0206107
0.0212267
0.0217915
0.0223039
0.0227625
0.0231662
0.0235142
0.0238055
0.0240395
0.0242155
0.0243332
0.0243923
0.0243926
0.0243342
0.0242171
0.0240417
0.0238084
0.0235177
0.0231704
0.0227672
0.0223092
0.0217975
0.0212332
0.0206178
0.0199527
0.0192395
0.0184799
0.0176757
0.0168287
0.0159409
0.0150142
0.0140506
0.0130518
0.0120198
0.0109559
0.00986145
0.00873735
0.00758399
0.00640123
0.00518838
0.00394406
0.00266632
0.00135263
0
0
0.00112368
0.00227493
0.003447
0.00463312
0.00582663
0.00702112
0.00821056
0.00938936
0.0105524
0.011695
0.0128131
0.0139027
0.0149605
0.0159834
0.0169685
0.0179131
0.0188149
0.0196714
0.0204807
0.0212407
0.0219495
0.0226055
0.023207
0.0237526
0.024241
0.024671
0.0250416
0.0253518
0.025601
0.0257884
0.0259138
0.0259767
0.0259771
0.0259148
0.0257902
0.0256034
0.0253549
0.0250453
0.0246754
0.0242461
0.0237584
0.0232134
0.0226124
0.021957
0.0212487
0.0204892
0.0196803
0.0188238
0.0179218
0.0169763
0.0159894
0.0149632
0.0138996
0.0128005
0.0116675
0.010502
0.00930489
0.00807661
0.00681703
0.00552539
0.00420025
0.00283951
0.00144049
0
0
0.00118952
0.0024082
0.00364894
0.00490455
0.00616798
0.00743245
0.00869157
0.00993943
0.0111706
0.0123802
0.0135637
0.0147172
0.015837
0.0169198
0.0179626
0.0189626
0.0199171
0.0208239
0.0216806
0.0224851
0.0232354
0.0239298
0.0245666
0.0251442
0.0256612
0.0261163
0.0265086
0.026837
0.0271008
0.0272992
0.0274319
0.0274986
0.0274989
0.027433
0.0273011
0.0271033
0.0268403
0.0265126
0.026121
0.0256666
0.0251502
0.0245733
0.0239372
0.0232434
0.0224936
0.0216896
0.0208332
0.0199266
0.0189717
0.0179709
0.0169262
0.0158398
0.0147139
0.0135504
0.0123511
0.0111173
0.00985001
0.00854977
0.0072164
0.00584909
0.00444632
0.00300586
0.00152488
0
0
0.00125248
0.00253568
0.00384209
0.00516417
0.00649447
0.00782587
0.00915164
0.0104656
0.0117619
0.0130355
0.0142817
0.0154962
0.0166753
0.0178154
0.0189134
0.0199663
0.0209714
0.0219262
0.0228282
0.0236753
0.0244653
0.0251965
0.025867
0.0264751
0.0270195
0.0274988
0.0279118
0.0282576
0.0285353
0.0287443
0.028884
0.0289541
0.0289545
0.0288852
0.0287462
0.028538
0.0282611
0.027916
0.0275037
0.0270252
0.0264815
0.0258741
0.0252043
0.0244737
0.0236842
0.0228377
0.021936
0.0209814
0.019976
0.0189221
0.0178221
0.0166783
0.0154928
0.0142677
0.0130048
0.0117057
0.0103714
0.00900234
0.00759839
0.0061587
0.00468167
0.00316497
0.0016056
0
0
0.00131243
0.00265704
0.00402599
0.00541134
0.00680532
0.00820044
0.00958967
0.0109665
0.0123249
0.0136594
0.0149653
0.0162379
0.0174734
0.0186681
0.0198187
0.020922
0.0219752
0.0229756
0.0239208
0.0248084
0.0256363
0.0264025
0.027105
0.0277423
0.0283127
0.0288149
0.0292477
0.0296101
0.0299011
0.0301201
0.0302665
0.03034
0.0303404
0.0302677
0.0301221
0.0299039
0.0296137
0.0292522
0.0288201
0.0283187
0.027749
0.0271125
0.0264106
0.0256451
0.0248178
0.0239307
0.0229859
0.0219856
0.0209321
0.0198278
0.0186752
0.0174766
0.0162343
0.0149506
0.0136273
0.012266
0.0108678
0.00943322
0.00796207
0.00645348
0.00490575
0.00331646
0.00168245
0
0
0.00136921
0.00277201
0.00420018
0.00564548
0.00709977
0.00855526
0.0100046
0.011441
0.0128581
0.0142504
0.0156128
0.0169405
0.0182295
0.0194759
0.0206762
0.0218272
0.022926
0.0239697
0.0249558
0.0258818
0.0267456
0.0275449
0.0282778
0.0289426
0.0295378
0.0300617
0.0305132
0.0308913
0.0311949
0.0314233
0.031576
0.0316527
0.0316532
0.0315773
0.0314254
0.0311978
0.030895
0.0305178
0.0300671
0.029544
0.0289496
0.0282856
0.0275533
0.0267547
0.0258917
0.0249662
0.0239805
0.0229369
0.0218378
0.0206857
0.0194832
0.0182327
0.0169367
0.0155975
0.0142169
0.0127967
0.011338
0.00984137
0.00830658
0.00673271
0.00511802
0.00345995
0.00175524
0
0
0.0014227
0.00288029
0.00436426
0.00586601
0.00737711
0.00888946
0.0103954
0.0118879
0.0133604
0.0148071
0.0162227
0.0176023
0.0189416
0.0202367
0.0214839
0.0226799
0.0238216
0.0249061
0.0259307
0.0268929
0.0277904
0.0286209
0.0293825
0.0300733
0.0306916
0.031236
0.0317052
0.032098
0.0324135
0.0326508
0.0328095
0.0328892
0.0328897
0.0328109
0.032653
0.0324165
0.0321019
0.03171
0.0312417
0.0306981
0.0300805
0.0293905
0.0286297
0.0277999
0.0269031
0.0259415
0.0249172
0.0238329
0.0226909
0.0214938
0.0202443
0.018945
0.0175984
0.0162068
0.0147723
0.0132966
0.011781
0.0102258
0.00863107
0.00699571
0.00531795
0.00359511
0.00182381
0
0
0.00147276
0.00298164
0.00451782
0.00607242
0.00763669
0.00920225
0.0107612
0.0123062
0.0138305
0.0153281
0.0167935
0.0182216
0.0196081
0.0209487
0.0222398
0.0234779
0.0246598
0.0257824
0.0268431
0.0278392
0.0287682
0.029628
0.0304163
0.0311314
0.0317716
0.0323351
0.0328208
0.0332274
0.033554
0.0337997
0.033964
0.0340465
0.0340469
0.0339654
0.033802
0.0335572
0.0332315
0.0328258
0.032341
0.0317782
0.031139
0.0304247
0.0296371
0.0287781
0.0278497
0.0268542
0.025794
0.0246715
0.0234893
0.0222501
0.0209566
0.0196116
0.0182176
0.016777
0.0152921
0.0137645
0.0121955
0.0105856
0.00893476
0.00724187
0.00550507
0.00372161
0.00188799
0
0
0.00151927
0.00307581
0.0046605
0.00626419
0.00787787
0.00949287
0.011101
0.0126948
0.0142673
0.0158122
0.0173239
0.0187971
0.0202273
0.0216103
0.0229422
0.0242194
0.0254386
0.0265967
0.0276908
0.0287184
0.0296767
0.0305636
0.0313769
0.0321146
0.0327749
0.0333563
0.0338573
0.0342768
0.0346137
0.0348671
0.0350366
0.0351217
0.0351222
0.035038
0.0348695
0.0346169
0.034281
0.0338624
0.0333623
0.0327818
0.0321224
0.0313855
0.0305731
0.0296869
0.0287293
0.0277023
0.0266086
0.0254506
0.0242311
0.0229528
0.0216185
0.0202309
0.0187929
0.0173069
0.015775
0.0141992
0.0125806
0.0109199
0.00921694
0.00747058
0.00567892
0.00383915
0.00194761
0
0
0.00156212
0.00316256
0.00479195
0.00644088
0.00810007
0.00976062
0.0114142
0.0130529
0.0146697
0.0162582
0.0178125
0.0193273
0.0207978
0.0222198
0.0235893
0.0249025
0.0261561
0.0273469
0.0284719
0.0295284
0.0305138
0.0314257
0.0322619
0.0330204
0.0336994
0.0342972
0.0348123
0.0352436
0.03559
0.0358506
0.0360249
0.0361123
0.0361128
0.0360263
0.035853
0.0355933
0.0352479
0.0348176
0.0343033
0.0337065
0.0330284
0.0322708
0.0314354
0.0305243
0.0295396
0.0284837
0.0273591
0.0261685
0.0249145
0.0236002
0.0222282
0.0208016
0.019323
0.017795
0.01622
0.0145997
0.0129355
0.0112279
0.0094769
0.00768129
0.0058391
0.00394743
0.00200254
0
0
0.00160121
0.0032417
0.00491186
0.00660204
0.00830275
0.0100049
0.0116998
0.0133795
0.0150368
0.016665
0.0182582
0.0198109
0.0213183
0.0227758
0.0241795
0.0255256
0.0268106
0.0280311
0.0291843
0.0302673
0.0312773
0.0322121
0.0330692
0.0338467
0.0345426
0.0351554
0.0356834
0.0361255
0.0364805
0.0367477
0.0369263
0.037016
0.0370165
0.0369278
0.0367501
0.036484
0.0361299
0.0356888
0.0351617
0.0345499
0.0338549
0.0330783
0.032222
0.0312881
0.0302787
0.0291964
0.0280437
0.0268233
0.025538
0.0241907
0.0227844
0.0213221
0.0198065
0.0182403
0.0166258
0.014965
0.0132592
0.0115089
0.00971404
0.0078735
0.00598521
0.00404621
0.00205265
0
0
0.00163644
0.00331302
0.00501994
0.00674731
0.00848543
0.010225
0.0119572
0.0136739
0.0153677
0.0170317
0.0186599
0.0202468
0.0217873
0.023277
0.0247116
0.0260872
0.0274005
0.0286479
0.0298265
0.0309332
0.0319655
0.0329208
0.0337968
0.0345914
0.0353027
0.0359289
0.0364685
0.0369203
0.0372832
0.0375562
0.0377388
0.0378304
0.0378309
0.0377403
0.0375587
0.0372867
0.0369249
0.036474
0.0359354
0.0353101
0.0345998
0.0338061
0.032931
0.0319765
0.030945
0.0298388
0.0286607
0.0274135
0.0260999
0.024723
0.0232858
0.0217912
0.0202423
0.0186416
0.0169917
0.0152943
0.0135509
0.0117621
0.00992778
0.00804673
0.0061169
0.00413524
0.00209782
0
0
0.00166773
0.00337637
0.00511592
0.00687632
0.00864767
0.0104205
0.0121858
0.0139354
0.0156615
0.0173574
0.0190167
0.0206339
0.0222039
0.023722
0.025184
0.026586
0.0279244
0.0291957
0.0303967
0.0315247
0.0325767
0.0335503
0.034443
0.0352528
0.0359776
0.0366158
0.0371658
0.0376262
0.037996
0.0382743
0.0384603
0.0385537
0.0385543
0.0384619
0.0382769
0.0379996
0.0376309
0.0371714
0.0366224
0.0359852
0.0352613
0.0344525
0.0335606
0.0325879
0.0315366
0.0304094
0.0292087
0.0279376
0.0265989
0.0251957
0.023731
0.0222079
0.0206293
0.0189981
0.0173165
0.0155867
0.01381
0.011987
0.0101176
0.00820059
0.00623386
0.0042143
0.00213793
0
0
0.001695
0.00343158
0.00519957
0.00698876
0.00878908
0.0105909
0.0123851
0.0141632
0.0159176
0.0176412
0.0193277
0.0209713
0.022567
0.0241099
0.0255959
0.0270208
0.028381
0.0296731
0.0308938
0.0320402
0.0331094
0.0340989
0.0350062
0.0358293
0.036566
0.0372146
0.0377735
0.0382415
0.0386174
0.0389002
0.0390893
0.0391842
0.0391847
0.0390908
0.0389028
0.038621
0.0382462
0.0377793
0.0372213
0.0365737
0.0358379
0.0350158
0.0341094
0.0331208
0.0320523
0.0309066
0.0296864
0.0283944
0.0270339
0.0256077
0.024119
0.022571
0.0209667
0.0193087
0.0175997
0.0158416
0.0140358
0.012183
0.010283
0.00833468
0.00633579
0.00428321
0.00217289
0
0
0.00171819
0.00347852
0.0052707
0.00708436
0.00890932
0.0107358
0.0125545
0.014357
0.0161353
0.0178825
0.0195921
0.0212582
0.0228757
0.0244398
0.025946
0.0273904
0.0287692
0.030079
0.0313164
0.0324785
0.0335623
0.0345654
0.0354851
0.0363194
0.0370662
0.0377237
0.0382903
0.0387647
0.0391456
0.0394323
0.039624
0.0397202
0.0397208
0.0396256
0.039435
0.0391494
0.0387694
0.0382961
0.0377305
0.037074
0.0363282
0.0354949
0.034576
0.0335739
0.0324908
0.0313294
0.0300925
0.0287829
0.0274037
0.025958
0.024449
0.0228798
0.0212535
0.0195729
0.0178405
0.0160583
0.0142278
0.0123497
0.0104237
0.0084487
0.00642247
0.00434181
0.00220261
0
0
0.00173724
0.00351709
0.00532913
0.0071629
0.00900809
0.0108548
0.0126937
0.0145161
0.0163142
0.0180808
0.0198093
0.0214939
0.0231293
0.0247107
0.0262336
0.0276941
0.0290882
0.0304125
0.0316636
0.0328385
0.0339344
0.0349486
0.0358785
0.036722
0.0374771
0.0381419
0.0387148
0.0391944
0.0395796
0.0398695
0.0400633
0.0401606
0.0401611
0.0400649
0.0398722
0.0395834
0.0391992
0.0387206
0.0381488
0.037485
0.0367309
0.0358884
0.0349593
0.0339461
0.032851
0.0316767
0.0304261
0.029102
0.0277075
0.0262458
0.02472
0.0231334
0.0214891
0.0197899
0.0180382
0.0162363
0.0143856
0.0124866
0.0105393
0.00854237
0.00649367
0.00438994
0.00222703
0
0
0.0017521
0.00354718
0.00537473
0.00722419
0.00908516
0.0109477
0.0128023
0.0146403
0.0164538
0.0182355
0.0199788
0.0216778
0.0233272
0.0249221
0.0264581
0.027931
0.029337
0.0306727
0.0319345
0.0331195
0.0342247
0.0352476
0.0361855
0.0370362
0.0377977
0.0384682
0.039046
0.0395297
0.0399182
0.0402106
0.040406
0.0405042
0.0405047
0.0404077
0.0402133
0.039922
0.0395346
0.0390519
0.0384752
0.0378057
0.0370452
0.0361954
0.0352584
0.0342365
0.0331321
0.0319478
0.0306864
0.029351
0.0279445
0.0264703
0.0249315
0.0233314
0.021673
0.0199592
0.0181926
0.0163752
0.0145086
0.0125934
0.0106294
0.00861545
0.00654923
0.0044275
0.00224608
0
0
0.00176275
0.00356872
0.00540737
0.00726807
0.00914034
0.0110142
0.0128801
0.0147293
0.0165537
0.0183462
0.0201001
0.0218094
0.0234689
0.0250735
0.0266188
0.0281007
0.0295152
0.030859
0.0321285
0.0333207
0.0344326
0.0354617
0.0364053
0.0372612
0.0380273
0.0387019
0.0392832
0.0397698
0.0401607
0.0404548
0.0406515
0.0407502
0.0407507
0.0406531
0.0404576
0.0401645
0.0397747
0.0392891
0.0387089
0.0380353
0.0372702
0.0364153
0.0354726
0.0344444
0.0333333
0.0321418
0.0308728
0.0295292
0.0281143
0.0266311
0.025083
0.0234731
0.0218046
0.0200804
0.0183031
0.0164747
0.0145968
0.0126699
0.010694
0.00866778
0.00658901
0.00445439
0.00225973
0
0
0.00176914
0.00358167
0.00542699
0.00729444
0.0091735
0.0110541
0.0129268
0.0147827
0.0166138
0.0184128
0.020173
0.0218886
0.023554
0.0251645
0.0267154
0.0282026
0.0296223
0.0309709
0.032245
0.0334416
0.0345576
0.0355903
0.0365374
0.0373964
0.0381653
0.0388423
0.0394257
0.0399141
0.0403064
0.0406016
0.040799
0.040898
0.0408986
0.0408006
0.0406043
0.0403102
0.039919
0.0394317
0.0388493
0.0381733
0.0374054
0.0365474
0.0356013
0.0345694
0.0334542
0.0322584
0.0309848
0.0296364
0.0282163
0.0267277
0.025174
0.0235582
0.0218837
0.0201533
0.0183695
0.0165345
0.0146497
0.0127159
0.0107328
0.00869923
0.00661291
0.00447056
0.00226793
0
0
0.00177127
0.00358599
0.00543354
0.00730323
0.00918457
0.0110675
0.0129424
0.0148005
0.0166338
0.018435
0.0201974
0.021915
0.0235824
0.0251948
0.0267476
0.0282366
0.0296581
0.0310083
0.0322839
0.0334819
0.0345992
0.0356332
0.0365814
0.0374415
0.0382113
0.0388891
0.0394733
0.0399623
0.040355
0.0406506
0.0408482
0.0409474
0.0409479
0.0408498
0.0406533
0.0403589
0.0399672
0.0394792
0.0388962
0.0382194
0.0374505
0.0365915
0.0356442
0.0346111
0.0334946
0.0322973
0.0310222
0.0296721
0.0282503
0.02676
0.0252043
0.0235867
0.0219101
0.0201776
0.0183916
0.0165544
0.0146674
0.0127312
0.0107457
0.00870972
0.00662089
0.00447595
0.00227066
0
0
0.00176914
0.00358167
0.00542699
0.00729444
0.0091735
0.0110541
0.0129268
0.0147827
0.0166138
0.0184128
0.020173
0.0218886
0.023554
0.0251645
0.0267154
0.0282026
0.0296223
0.0309709
0.032245
0.0334416
0.0345576
0.0355903
0.0365374
0.0373964
0.0381653
0.0388423
0.0394257
0.0399141
0.0403064
0.0406016
0.040799
0.040898
0.0408986
0.0408006
0.0406043
0.0403102
0.039919
0.0394317
0.0388493
0.0381733