# vtk DataFile Version 3.0
3D field
ASCII
DATASET STRUCTURED_POINTS
DIMENSIONS 65 65 65
ORIGIN 0 0 0
SPACING 0.015625 0.015625 0.015625
POINT_DATA 274625
SCALARS temperature double 1
LOOKUP_TABLE default
0
0
0
0
0
0
0
0
0
0
0
0
0
0
0
0
0
0
0
0
0
0
0
0
0
0
0
0
0
0
0
0
0
0
0
0
0
0
0
0
0
0
0
0
0
0
0
0
0
0
0
0
0
0
0
0
0
0
0
0
0
0
0
0
0
0
0
0
0
0
0
0
0
0
0
0
0
0
0
0
0
0
0
0
0
0
0
0
0
0
0
0
0
0
0
0
0
0
0
0
0
0
0
0
0
0
0
0
0
0
0
0
0
0
0
0
0
0
0
0
0
0
0
0
0
0
0
0
0
0
0
0
0
0
0
0
0
0
0
0
0
0
0
0
0
0
0
0
0
0
0
0
0
0
0
0
0
0
0
0
0
0
0
0
0
0
0
0
0
0
0
0
0
0
0
0
0
0
0
0
0
0
0
0
0
0
0
0
0
0
0
0
0
0
0
0
0
0
0
0
0
0
0
0
0
0
0
0
0
0
0
0
0
0
0
0
0
0
0
0
0
0
0
0
0
0
0
0
0
0
0
0
0
0
0
0
0
0
0
0
0
0
0
0
0
0
0
0
0
0
0
0
0
0
0
0
0
0
0
0
0
0
0
0
0
0
0
0
0
0
0
0
0
0
0
0
0
0
0
0
0
0
0
0
0
0
0
0
0
0
0
0
0
0
0
0
0
0
0
0
0
0
0
0
0
0
0
0
0
0
0
0
0
0
0
0
0
0
0
0
0
0
0
0
0
0
0
0
0
0
0
0
0
0
0
0
0
0
0
0
0
0
0
0
0
0
0
0
0
0
0
0
0
0
0
0
0
0
0
0
0
0
0
0
0
0
0
0
0
0
0
0
0
0
0
0
0
0
0
0
0
0
0
0
0
0
0
0
0
0
0
0
0
0
0
0
0
0
0
0
0
0
0
0
0
0
0
0
0
0
0
0
0
0
0
0
0
0
0
0
0
0
0
0
0
0
0
0
0
0
0
0
0
0
0
0
0
0
0
0
0
0
0
0
0
0
0
0
0
0
0
0
0
0
0
0
0
0
0
0
0
0
0
0
0
0
0
0
0
0
0
0
0
0
0
0
0
0
0
0
0
0
0
0
0
0
0
0
0
0
0
0
0
0
0
0
0
0
0
0
0
0
0
0
0
0
0
0
0
0
0
0
0
0
0
0
0
0
0
0
0
0
0
0
0
0
0
0
0
0
0
0
0
0
0
0
0
0
0
0
0
0
0
0
0
0
0
0
0
0
0
0
0
0
0
0
0
0
0
0
0
0
0
0
0
0
0
0
0
0
0
0
0
0
0
0
0
0
0
0
0
0
0
0
0
0
0
0
0
0
0
0
0
0
0
0
0
0
0
0
0
0
0
0
0
0
0
0
0
0
0
0
0
0
0
0
0
0
0
0
0
0
0
0
0
0
0
0
0
0
0
0
0
0
0
0
0
0
0
0
0
0
0
0
0
0
0
0
0
0
0
0
0
0
0
0
0
0
0
0
0
0
0
0
0
0
0
0
0
0
0
0
0
0
0
0
0
0
0
0
0
0
0
0
0
0
0
0
0
0
0
0
0
0
0
0
0
0
0
0
0
0
0
0
0
0
0
0
0
0
0
0
0
0
0
0
0
0
0
0
0
0
0
0
0
0
0
0
0
0
0
0
0
0
0
0
0
0
0
0
0
0
0
0
0
0
0
0
0
0
0
0
0
0
0
0
0
0
0
0
0
0
0
0
0
0
0
0
0
0
0
0
0
0
0
0
0
0
0
0
0
0
0
0
0
0
0
0
0
0
0
0
0
0
0
0
0
0
0
0
0
0
0
0
0
0
0
0
0
0
0
0
0
0
0
0
0
0
0
0
0
0
0
0
0
0
0
0
0
0
0
0
0
0
0
0
0
0
0
0
0
0
0
0
0
0
0
0
0
0
0
0
0
0
0
0
0
0
0
0
0
0
0
0
0
0
0
0
0
0
0
0
0
0
0
0
0
0
0
0
0
0
0
0
0
0
0
0
0
0
0
0
0
0
0
0
0
0
0
0
0
0
0
0
0
0
0
0
0
0
0
0
0
0
0
0
0
0
0
0
0
0
0
0
0
0
0
0
0
0
0
0
0
0
0
0
0
0
0
0
0
0
0
0
0
0
0
0
0
0
0
0
0
0
0
0
0
0
0
0
0
0
0
0
0
0
0
0
0
0
0
0
0
0
0
0
0
0
0
0
0
0
0
0
0
0
0
0
0
0
0
0
0
0
0
0
0
0
0
0
0
0
0
0
0
0
0
0
0
0
0
0
0
0
0
0
0
0
0
0
0
0
0
0
0
0
0
0
0
0
0
0
0
0
0
0
0
0
0
0
0
0
0
0
0
0
0
0
0
0
0
0
0
0
0
0
0
0
0
0
0
0
0
0
0
0
0
0
0
0
0
0
0
0
0
0
0
0
0
0
0
0
0
0
0
0
0
0
0
0
0
0
0
0
0
0
0
0
0
0
0
0
0
0
0
0
0
0
0
0
0
0
0
0
0
0
0
0
0
0
0
0
0
0
0
0
0
0
0
0
0
0
0
0
0
0
0
0
0
0
0
0
0
0
0
0
0
0
0
0
0
0
0
0
0
0
0
0
0
0
0
0
0
0
0
0
0
0
0
0
0
0
0
0
0
0
0
0
0
0
0
0
0
0
0
0
0
0
0
0
0
0
0
0
0
0
0
0
0
0
0
0
0
0
0
0
0
0
0
0
0
0
0
0
0
0
0
0
0
0
0
0
0
0
0
0
0
0
0
0
0
0
0
0
0
0
0
0
0
0
0
0
0
0
0
0
0
0
0
0
0
0
0
0
0
0
0
0
0
0
0
0
0
0
0
0
0
0
0
0
0
0
0
0
0
0
0
0
0
0
0
0
0
0
0
0
0
0
0
0
0
0
0
0
0
0
0
0
0
0
0
0
0
0
0
0
0
0
0
0
0
0
0
0
0
0
0
0
0
0
0
0
0
0
0
0
0
0
0
0
0
0
0
0
0
0
0
0
0
0
0
0
0
0
0
0
0
0
0
0
0
0
0
0
0
0
0
0
0
0
0
0
0
0
0
0
0
0
0
0
0
0
0
0
0
0
0
0
0
0
0
0
0
0
0
0
0
0
0
0
0
0
0
0
0
0
0
0
0
0
0
0
0
0
0
0
0
0
0
0
0
0
0
0
0
0
0
0
0
0
0
0
0
0
0
0
0
0
0
0
0
0
0
0
0
0
0
0
0
0
0
0
0
0
0
0
0
0
0
0
0
0
0
0
0
0
0
0
0
0
0
0
0
0
0
0
0
0
0
0
0
0
0
0
0
0
0
0
0
0
0
0
0
0
0
0
0
0
0
0
0
0
0
0
0
0
0
0
0
0
0
0
0
0
0
0
0
0
0
0
0
0
0
0
0
0
0
0
0
0
0
0
0
0
0
0
0
0
0
0
0
0
0
0
0
0
0
0
0
0
0
0
0
0
0
0
0
0
0
0
0
0
0
0
0
0
0
0
0
0
0
0
0
0
0
0
0
0
0
0
0
0
0
0
0
0
0
0
0
0
0
0
0
0
0
0
0
0
0
0
0
0
0
0
0
0
0
0
0
0
0
0
0
0
0
0
0
0
0
0
0
0
0
0
0
0
0
0
0
0
0
0
0
0
0
0
0
0
0
0
0
0
0
0
0
0
0
0
0
0
0
0
0
0
0
0
0
0
0
0
0
0
0
0
0
0
0
0
0
0
0
0
0
0
0
0
0
0
0
0
0
0
0
0
0
0
0
0
0
0
0
0
0
0
0
0
0
0
0
0
0
0
0
0
0
0
0
0
0
0
0
0
0
0
0
0
0
0
0
0
0
0
0
0
0
0
0
0
0
0
0
0
0
0
0
0
0
0
0
0
0
0
0
0
0
0
0
0
0
0
0
0
0
0
0
0
0
0
0
0
0
0
0
0
0
0
0
0
0
0
0
0
0
0
0
0
0
0
0
0
0
0
0
0
0
0
0
0
0
0
0
0
0
0
0
0
0
0
0
0
0
0
0
0
0
0
0
0
0
0
0
0
0
0
0
0
0
0
0
0
0
0
0
0
0
0
0
0
0
0
0
0
0
0
0
0
0
0
0
0
0
0
0
0
0
0
0
0
0
0
0
0
0
0
0
0
0
0
0
0
0
0
0
0
0
0
0
0
0
0
0
0
0
0
0
0
0
0
0
0
0
0
0
0
0
0
0
0
0
0
0
0
0
0
0
0
0
0
0
0
0
0
0
0
0
0
0
0
0
0
0
0
0
0
0
0
0
0
0
0
0
0
0
0
0
0
0
0
0
0
0
0
0
0
0
0
0
0
0
0
0
0
0
0
0
0
0
0
0
0
0
0
0
0
0
0
0
0
0
0
0
0
0
0
0
0
0
0
0
0
0
0
0
0
0
0
0
0
0
0
0
0
0
0
0
0
0
0
0
0
0
0
0
0
0
0
0
0
0
0
0
0
0
0
0
0
0
0
0
0
0
0
0
0
0
0
0
0
0
0
0
0
0
0
0
0
0
0
0
0
0
0
0
0
0
0
0
0
0
0
0
0
0
0
0
0
0
0
0
0
0
0
0
0
0
0
0
0
0
0
0
0
0
0
0
0
0
0
0
0
0
0
0
0
0
0
0
0
0
0
0
0
0
0
0
0
0
0
0
0
0
0
0
0
0
0
0
0
0
0
0
0
0
0
0
0
0
0
0
0
0
0
0
0
0
0
0
0
0
0
0
0
0
0
0
0
0
0
0
0
0
0
0
0
0
0
0
0
0
0
0
0
0
0
0
0
0
0
0
0
0
0
0
0
0
0
0
0
0
0
0
0
0
0
0
0
0
0
0
0
0
0
0
0
0
0
0
0
0
0
0
0
0
0
0
0
0
0
0
0
0
0
0
0
0
0
0
0
0
0
0
0
0
0
0
0
0
0
0
0
0
0
0
0
0
0
0
0
0
0
0
0
0
0
0
0
0
0
0
0
0
0
0
0
0
0
0
0
0
0
0
0
0
0
0
0
0
0
0
0
0
0
0
0
0
0
0
0
0
0
0
0
0
0
0
0
0
0
0
0
0
0
0
0
0
0
0
0
0
0
0
0
0
0
0
0
0
0
0
0
0
0
0
0
0
0
0
0
0
0
0
0
0
0
0
0
0
0
0
0
0
0
0
0
0
0
0
0
0
0
0
0
0
0
0
0
0
0
0
0
0
0
0
0
0
0
0
0
0
0
0
0
0
0
0
0
0
0
0
0
0
0
0
0
0
0
0
0
0
0
0
0
0
0
0
0
0
0
0
0
0
0
0
0
0
0
0
0
0
0
0
0
0
0
0
0
0
0
0
0
0
0
0
0
0
0
0
0
0
0
0
0
0
0
0
0
0
0
0
0
0
0
0
0
0
0
0
0
0
0
0
0
0
0
0
0
0
0
0
0
0
0
0
0
0
0
0
0
0
0
0
0
0
0
0
0
0
0
0
0
0
0
0
0
0
0
0
0
0
0
0
0
0
0
0
0
0
0
0
0
0
0
0
0
0
0
0
0
0
0
0
0
0
0
0
0
0
0
0
0
0
0
0
0
0
0
0
0
0
0
0
0
0
0
0
0
0
0
0
0
0
0
0
0
0
0
0
0
0
0
0
0
0
0
0
0
0
0
0
0
0
0
0
0
0
0
0
0
0
0
0
0
0
0
0
0
0
0
0
0
0
0
0
0
0
0
0
0
0
0
0
0
0
0
0
0
0
0
0
0
0
0
0
0
0
0
0
0
0
0
0
0
0
0
0
0
0
0
0
0
0
0
0
0
0
0
0
0
0
0
0
0
0
0
0
0
0
0
0
0
0
0
0
0
0
0
0
0
0
0
0
0
0
0
0
0
0
0
0
0
0
0
0
0
0
0
0
0
0
0
0
0
0
0
0
0
0
0
0
0
0
0
0
0
0
0
0
0
0
0
0
0
0
0
0
0
0
0
0
0
0
0
0
0
0
0
0
0
0
0
0
0
0
0
0
0
0
0
0
0
0
0
0
0
0
0
0
0
0
0
0
0
0
0
0
0
0
0
0
0
0
0
0
0
0
0
0
0
0
0
0
0
0
0
0
0
0
0
0
0
0
0
0
0
0
0
0
0
0
0
0
0
0
0
0
0
0
0
0
0
0
0
0
0
0
0
0
0
0
0
0
0
0
0
0
0
0
0
0
0
0
0
0
0
0
0
0
0
0
0
0
0
0
0
0
0
0
0
0
0
0
0
0
0
0
0
0
0
0
0
0
0
0
0
0
0
0
0
0
0
0
0
0
0
0
0
0
0
0
0
0
0
0
0
0
0
0
0
0
0
0
0
0
0
0
0
0
0
0
0
0
0
0
0
0
0
0
0
0
0
0
0
0
0
0
0
0
0
0
0
0
0
0
0
0
0
0
0
0
0
0
0
0
0
0
0
0
0
0
0
0
0
0
0
0
0
0
0
0
0
0
0
0
0
0
0
0
0
0
0
0
0
0
0
0
0
0
0
0
0
0
0
0
0
0
0
0
0
0
0
0
0
0
0
0
0
0
0
0
0
0
0
0
0
0
0
0
0
0
0
0
0
0
0
0
0
0
0
0
0
0
0
0
0
0
0
0
0
0
0
0
0
0
0
0
0
0
0
0
0
0
0
0
0
0
0
0
0
0
0
0
0
0
0
0
0
0
0
0
0
0
0
0
0
0
0
0
0
0
0
0
0
0
0
0
0
0
0
0
0
0
0
0
0
0
0
0
0
0
0
0
0
0
0
0
0
0
0
0
0
0
0
0
0
0
0
0
0
0
0
0
0
0
0
0
0
0
0
0
0
0
0
0
0
0
0
0
0
0
0
0
0
0
0
0
0
0
0
0
0
0
0
0
0
0
0
0
0
0
0
0
0
0
0
0
0
0
0
0
0
0
0
0
0
0
0
0
0
0
0
0
0
0
0
0
0
0
0
0
0
0
0
0
0
0
0
0
0
0
0
0
0
0
0
0
0
0
0
0
0
0
0
0
0
0
0
0
0
0
0
0
0
0
0
0
0
0
0
0
0
0
0
0
0
0
0
0
0
0
0
0
0
0
0
0
0
0
0
0
0
0
0
0
0
0
0
0
0
0
0
0
0
0
0
0
0
0
0
0
0
0
0
0
0
0
0
0
0
0
0
0
0
0
0
0
0
0
0
0
0
0
0
0
0
0
0
0
0
0
0
0
0
0
0
0
0
0
0
0
0
0
0
0
0
0
0
0
0
0
0
0
0
0
0
0
0
0
0
0
0
0
0
0
0
0
0
0
0
0
0
0
0
0
0
0
0
0
0
0
0
0
0
0
0
0
0
0
0
0
0
0
0
0
0
0
0
0
0
0
0
0
0
0
0
0
0
0
0
0
0
0
0
0
0
0
0
0
0
0
0
0
0
0
0
0
0
0
0
0
0
0
0
0
0
0
0
0
0
0
0
0
0
0
0
0
0
0
0
0
0
0
0
0
0
0
0
0
0
0
0
0
0
0
0
0
0
0
0
0
0
0
0
0
0
0
0
0
0
0
0
0
0
0
0
0
0
0
0
0
0
0
0
0
0
0
0
0
0
0
0
0
0
0
0
0
0
0
0
0
0
0
0
0
0
0
0
0
0
0
0
0
0
0
0
0
0
0
0
0
0
0
0
0
0
0
0
0
0
0
0
0
0
0
0
0
0
0
0
0
0
0
0
0
0
0
0
0
0
0
0
0
0
0
0
0
0
0
0
0
0
0
0
0
0
0
0
0
0
0
0
0
0
0
0
0
0
0
0
0
0
0
0
0
0
0
0
0
0
0
0
0
0
0
0
0
0
0
0
0
0
0
0
0
0
0
0
0
0
0
0
0
0
0
0
0
0
0
0
0
0
0
0
0
0
0
0
0
0
0
0
0
0
0
0
0
0
0
0
0
0
0
0
0
0
0
0
0
0
0
0
0
0
0
0
0
0
0
0
0
0
0
0
0
0
0
0
0
0
0
0
0
0
0
0
0
0
0
0
0
0
0
0
0
0
0
0
0
0
0
0
0
0
0
0
0
0
0
0
0
0
0
0
0
0
0
0
0
0
0
0
0
0
0
0
0
0
0
0
0
0
0
0
0
0
0
0
0
0
0
0
0
0
0
0
0
0
0
0
0
0
0
0
0
0
0
0
0
0
0
0
0
0
0
0
0
0
0
0
0
0
0
0
0
0
0
0
0
0
0
0
0
0
0
0
0
0
0
0
0
0
0
0
0
0
0
0
0
0
0
0
0
0
0
0
0
0
0
0
0
0
0
0
0
0
0
0
0
0
0
0
0
0
0
0
0
0
0
0
0
0
0
0
0
0
0
0
0
0
0
0
0
0
0
0
0
0
0
0
0
0
0
0
0
0
0
0
0
0
0
0
0
0
0
0
0
0
0
0
0
0
0
0
0
0
0
0
0
0
0
0
0
0
0
0
0
0
0
0
0
0
0
0
0
0
0
0
0
0
0
0
0
0
0
0
0
0
0
0
0
0
0
0
0
0
0
0
0
0
0
0
0
0
0
0
0
0
0
0
0
0
0
0
0
0
0
0
0
0
0
0
0
0
0
0
0
0
0
0
0
0
0
0
0
0
0
0
0
0
0
0
0
0
0
0
0
0
0
0
0
0
0
0
0
0
0
0
0
0
0
0
0
0
0
0
0
0
0
0
0
0
0
0
0
0
0
0
0
0
0
0
0
0
0
0
0
0
0
0
0
0
0
0
0
0
0
0
0
0
0
0
0
0
0
0
0
0
0
0
0
0
0
0
0
0
0
0
0
0
0
0
0
0
0
0
0
0
0
0
0
0
0
0
0
0
0
0
0
0
0
0
0
0
0
0
0
0
0
0
0
0
0
0
0
0
0
0
0
0
0
0
0
0
0
0
0
0
0
0
0
0
0
0
0
0
0
0
0
0
0
0
0
0
0
0
0
0
0
0
0
0
0
0
0
0
0
0
0
0
0
0
0
0
0
0
0
0
0
0
0
0
0
0
0
0
0
0
0
0
0
0
0
0
0
0
0
0
0
0
0
0
0
0
0
0
0
0
0
0
0
0
0
0
0
0
0
0
0
0
0
0
0
0
0
0
0
0
0
0
0
0
0
0
0
0
0
0
0
0
0
0
0
0
0
0
0
0
0
0
0
0
0
0
0
0
0
0
0
0
0
0
0
0
0
0
0
0
0
0
0
0
0
0
0
0
0
0
0
0
0
0
0
0
0
0
0
0
0
0
0
0
0
0
0
0
0
0
0
0
0
0
0
0
0
0
0
0
0
0
0
0
0
0
0
0
0
0
0
0
0
0
0
0
0
0
0
0
0
0
0
0
0
0
0
0
0
0
0
0
0
0
0
0
0
0
0
0
0
0
0
0
0
0
0
0
0
0
0
0
0
0
0
0
0
0
0
0
0
0
0
0
0
0
0
0
0
0
0
0
0
0
0
0
0
0
0
0
0
0
0
0
0
0
0
0
0
0
0
0
0
0
0
0
0
0
0
0
0
0
0
0
0
0
0
0
0
0
0
0
0
0
0
0
0
0
0
0
0
0
0
0
0
0
0
0
0
0
0
0
0
0
0
0
0
0
0
0
0
0
0
0
0
0
0
0
0
0
0
0
0
0
0
0.000117114
0.000234538
0.000351396
0.000467407
0.000582292
0.000695775
0.000807582
0.000917443
0.00102509
0.00113027
0.00123273
0.00133222
0.0014285
0.00152134
0.00161051
0.0016958
0.00177701
0.00185394
0.0019264
0.00199422
0.00205723
0.00211529
0.00216825
0.00221599
0.00225839
0.00229536
0.00232679
0.00235261
0.00237277
0.00238721
0.0023959
0.00239882
0.00239596
0.00238733
0.00237294
0.00235284
0.00232707
0.0022957
0.00225879
0.00221645
0.00216876
0.00211585
0.00205784
0.00199487
0.0019271
0.00185469
0.0017778
0.00169664
0.00161139
0.00152225
0.00142945
0.0013332
0.00123375
0.00113132
0.00102616
0.000918534
0.000808694
0.000696906
0.000583438
0.000468566
0.000352564
0.000235713
0.000118294
0
0
0.000233947
0.00046851
0.000701945
0.000933688
0.00116318
0.00138987
0.00161322
0.00183267
0.00204772
0.00225783
0.0024625
0.00266123
0.00285356
0.00303901
0.00321714
0.00338752
0.00354974
0.00370341
0.00384815
0.00398363
0.00410951
0.00422549
0.00433128
0.00442665
0.00451135
0.00458518
0.00464797
0.00469955
0.00473982
0.00476867
0.00478603
0.00479186
0.00478614
0.0047689
0.00474017
0.00470001
0.00464854
0.00458587
0.00451214
0.00442755
0.00433229
0.0042266
0.00411072
0.00398494
0.00384956
0.00370491
0.00355133
0.00338919
0.00321889
0.00304084
0.00285545
0.0026632
0.00246452
0.00225991
0.00204985
0.00183486
0.00161544
0.00139213
0.00116547
0.000936003
0.000704279
0.000470859
0.000236304
0
0
0.000350216
0.000701354
0.0010508
0.00139772
0.00174127
0.00208062
0.00241497
0.00274349
0.00306541
0.00337994
0.00368633
0.00398383
0.00427174
0.00454936
0.00481602
0.00507108
0.00531392
0.00554396
0.00576064
0.00596345
0.00615188
0.0063255
0.00648388
0.00662664
0.00675343
0.00686396
0.00695795
0.00703518
0.00709546
0.00713864
0.00716463
0.00717335
0.0071648
0.00713899
0.00709597
0.00703587
0.00695881
0.00686499
0.00675462
0.00662799
0.00648539
0.00632717
0.0061537
0.00596541
0.00576274
0.0055462
0.00531629
0.00507358
0.00481864
0.00455209
0.00427458
0.00398677
0.00368936
0.00338305
0.0030686
0.00274676
0.00241829
0.00208401
0.0017447
0.00140118
0.0010543
0.00070487
0.000353744
0
0
0.000465641
0.000932508
0.00139713
0.00185838
0.00231516
0.00276636
0.0032109
0.0036477
0.00407571
0.00449391
0.00490128
0.00529684
0.00567964
0.00604875
0.0064033
0.00674242
0.0070653
0.00737115
0.00765925
0.00792889
0.00817944
0.00841028
0.00862086
0.00881067
0.00897925
0.0091262
0.00925117
0.00935385
0.009434
0.00949141
0.00952597
0.00953757
0.0095262
0.00949187
0.00943468
0.00935477
0.00925231
0.00912757
0.00898083
0.00881246
0.00862287
0.00841249
0.00818185
0.0079315
0.00766205
0.00737413
0.00706845
0.00674574
0.00640678
0.00605239
0.00568341
0.00530074
0.00490531
0.00449805
0.00407996
0.00365204
0.00321532
0.00277086
0.00231972
0.00186299
0.00140178
0.000937183
0.000470332
0
0
0.000579944
0.00116142
0.00174009
0.00231457
0.00288348
0.00344544
0.0039991
0.00454312
0.0050762
0.00559705
0.00610442
0.00659708
0.00707385
0.00753357
0.00797515
0.00839752
0.00879965
0.00918059
0.00953941
0.00987524
0.0101873
0.0104748
0.0107371
0.0109735
0.0111834
0.0113665
0.0115221
0.01165
0.0117498
0.0118213
0.0118644
0.0118788
0.0118646
0.0118219
0.0117507
0.0116511
0.0115235
0.0113682
0.0111854
0.0109757
0.0107396
0.0104776
0.0101903
0.00987849
0.00954289
0.0091843
0.00880358
0.00840165
0.00797949
0.0075381
0.00707855
0.00660194
0.00610944
0.00560221
0.00508149
0.00454853
0.0040046
0.00345103
0.00288915
0.00232031
0.00174588
0.00116724
0.000585787
0
0
0.00069285
0.00138753
0.00207886
0.00276518
0.00344485
0.00411621
0.00477766
0.0054276
0.00606446
0.00668671
0.00729285
0.00788143
0.00845102
0.00900025
0.00952779
0.0100324
0.0105128
0.0109679
0.0113966
0.0117978
0.0121706
0.0125141
0.0128274
0.0131098
0.0133607
0.0135793
0.0137653
0.0139181
0.0140373
0.0141228
0.0141742
0.0141914
0.0141745
0.0141234
0.0140383
0.0139194
0.013767
0.0135814
0.013363
0.0131125
0.0128304
0.0125174
0.0121742
0.0118017
0.0114007
0.0109723
0.0105175
0.0100373
0.00953297
0.00900565
0.00845663
0.00788724
0.00729885
0.00669287
0.00607078
0.00543405
0.00478424
0.0041229
0.00345163
0.00277204
0.00208577
0.00139448
0.000699831
0
0
0.000804087
0.00161029
0.00241262
0.00320913
0.00399792
0.00477707
0.00554471
0.006299
0.00703811
0.00776026
0.00846372
0.00914679
0.00980783
0.0104452
0.0110575
0.0116431
0.0122006
0.0127288
0.0132263
0.0136919
0.0141246
0.0145232
0.0148868
0.0152146
0.0155057
0.0157595
0.0159753
0.0161526
0.016291
0.0163902
0.0164498
0.0164699
0.0164502
0.016391
0.0162922
0.0161542
0.0159773
0.0157619
0.0155085
0.0152177
0.0148903
0.014527
0.0141288
0.0136964
0.0132311
0.0127339
0.0122061
0.0116488
0.0110635
0.0104515
0.00981434
0.00915354
0.00847068
0.00776742
0.00704544
0.00630649
0.00555235
0.00478483
0.00400578
0.00321709
0.00242064
0.00161836
0.000812188
0
0
0.000913387
0.00182918
0.00274057
0.00364535
0.00454135
0.00542642
0.00629841
0.00715522
0.0079948
0.00881512
0.0096142
0.0103901
0.011141
0.0118651
0.0125605
0.0132257
0.0138591
0.014459
0.0150242
0.0155531
0.0160445
0.0164974
0.0169104
0.0172827
0.0176134
0.0179017
0.0181468
0.0183482
0.0185054
0.0186181
0.0186859
0.0187086
0.0186863
0.018619
0.0185068
0.01835
0.0181491
0.0179044
0.0176165
0.0172863
0.0169144
0.0165017
0.0160493
0.0155582
0.0150296
0.0144649
0.0138653
0.0132322
0.0125674
0.0118722
0.0111484
0.0103978
0.0096221
0.00882324
0.00800313
0.00716373
0.00630708
0.00543523
0.00455029
0.00365439
0.00274968
0.00183835
0.00092259
0
0
0.00102049
0.00204366
0.00306191
0.00407279
0.00507385
0.00606269
0.00703693
0.00799421
0.00893223
0.00984874
0.0107415
0.0116084
0.0124474
0.0132563
0.0140333
0.0147765
0.0154841
0.0161544
0.0167858
0.0173768
0.0179259
0.0184318
0.0188933
0.0193092
0.0196787
0.0200008
0.0202746
0.0204997
0.0206753
0.0208011
0.0208769
0.0209023
0.0208774
0.0208022
0.0206768
0.0205017
0.0202771
0.0200037
0.0196822
0.0193132
0.0188977
0.0184366
0.0179311
0.0173825
0.016792
0.016161
0.015491
0.0147838
0.0140409
0.0132643
0.0124556
0.011617
0.0107503
0.00985782
0.00894154
0.00800372
0.00704662
0.00607254
0.00508384
0.00408288
0.0030721
0.00205391
0.00103077
0
0
0.00112513
0.00225322
0.00337588
0.00449041
0.00559413
0.00668436
0.0077585
0.00881394
0.00984815
0.0108586
0.011843
0.0127987
0.0137237
0.0146156
0.0154723
0.0162917
0.0170719
0.0178109
0.018507
0.0191586
0.019764
0.0203218
0.0208306
0.0212892
0.0216966
0.0220516
0.0223536
0.0226017
0.0227954
0.0229341
0.0230176
0.0230456
0.0230181
0.0229352
0.022797
0.0226039
0.0223564
0.0220549
0.0217004
0.0212936
0.0208354
0.0203271
0.0197698
0.0191649
0.0185138
0.0178181
0.0170795
0.0162997
0.0154807
0.0146244
0.0137328
0.0128082
0.0118527
0.0108686
0.00985841
0.00882442
0.00776918
0.00669522
0.00560514
0.00450154
0.00338711
0.00226451
0.00113646
0
0
0.00122706
0.00245735
0.00368172
0.00489722
0.00610092
0.00728993
0.00846137
0.00961243
0.0107403
0.0118424
0.0129159
0.0139582
0.014967
0.0159397
0.016874
0.0177676
0.0186185
0.0194245
0.0201837
0.0208943
0.0215545
0.0221628
0.0227177
0.0232179
0.0236622
0.0240494
0.0243787
0.0246493
0.0248605
0.0250118
0.0251029
0.0251334
0.0251035
0.025013
0.0248623
0.0246517
0.0243817
0.024053
0.0236663
0.0232226
0.022723
0.0221686
0.0215609
0.0209011
0.0201911
0.0194323
0.0186268
0.0177764
0.0168832
0.0159493
0.0149769
0.0139685
0.0129265
0.0118533
0.0107515
0.00962387
0.00847303
0.00730177
0.00611293
0.00490936
0.00369396
0.00246967
0.00123942
0
0
0.00132603
0.00265556
0.00397869
0.00529223
0.00659302
0.00787794
0.00914387
0.0103878
0.0116066
0.0127976
0.0139577
0.0150841
0.0161742
0.0172254
0.0182351
0.0192008
0.0201203
0.0209913
0.0218117
0.0225796
0.0232931
0.0239504
0.0245501
0.0250907
0.0255707
0.0259892
0.0263451
0.0266375
0.0268657
0.0270293
0.0271277
0.0271607
0.0271283
0.0270306
0.0268677
0.0266401
0.0263484
0.0259931
0.0255752
0.0250958
0.0245558
0.0239568
0.0232999
0.022587
0.0218197
0.0209997
0.0201292
0.0192102
0.018245
0.0172357
0.016185
0.0150952
0.0139691
0.0128094
0.0116187
0.0104001
0.00915646
0.00789074
0.006606
0.00530535
0.00399192
0.00266887
0.00133939
0
0
0.00142181
0.00284737
0.00426607
0.00567449
0.00706924
0.00844696
0.00980433
0.0111381
0.012445
0.0137219
0.0149658
0.0161736
0.0173425
0.0184696
0.0195522
0.0205877
0.0215736
0.0225075
0.0233872
0.0242105
0.0249755
0.0256804
0.0263234
0.026903
0.0274177
0.0278664
0.028248
0.0285615
0.0288063
0.0289816
0.0290871
0.0291225
0.0290878
0.028983
0.0288084
0.0285643
0.0282515
0.0278706
0.0274226
0.0269085
0.0263295
0.0256872
0.0249829
0.0242185
0.0233957
0.0225166
0.0215832
0.0205978
0.0195628
0.0184807
0.017354
0.0161856
0.0149781
0.0137346
0.012458
0.0111513
0.00981784
0.00846069
0.00708315
0.00568856
0.00428026
0.00286164
0.00143614
0
0
0.00151417
0.00303232
0.00454317
0.00604308
0.00752843
0.00899564
0.0104412
0.0118616
0.0132534
0.0146133
0.0159379
0.0172242
0.018469
0.0196693
0.0208222
0.021925
0.0229749
0.0239695
0.0249063
0.0257831
0.0265978
0.0273485
0.0280332
0.0286505
0.0291987
0.0296765
0.0300829
0.0304168
0.0306774
0.0308641
0.0309765
0.0310142
0.0309772
0.0308656
0.0306796
0.0304198
0.0300866
0.029681
0.0292038
0.0286563
0.0280398
0.0273557
0.0266057
0.0257916
0.0249154
0.0239791
0.0229851
0.0219358
0.0208335
0.0196811
0.0184813
0.0172369
0.015951
0.0146267
0.0132672
0.0118757
0.0104556
0.00901026
0.00754324
0.00605806
0.00455828
0.00304752
0.00152942
0
0
0.00160287
0.00320997
0.00480933
0.00639711
0.00796948
0.00952264
0.0110529
0.0125565
0.0140298
0.0154694
0.0168717
0.0182333
0.019551
0.0208216
0.0220421
0.0232094
0.0243209
0.0253737
0.0263654
0.0272936
0.0281561
0.0289507
0.0296756
0.0303289
0.0309093
0.0314151
0.0318453
0.0321987
0.0324746
0.0326723
0.0327912
0.0328312
0.032792
0.0326739
0.032477
0.0322019
0.0318492
0.0314198
0.0309147
0.0303351
0.0296825
0.0289583
0.0281644
0.0273026
0.026375
0.025384
0.0243317
0.0232208
0.022054
0.0208341
0.019564
0.0182467
0.0168855
0.0154836
0.0140444
0.0125714
0.0110681
0.00953812
0.00798516
0.00641297
0.00482533
0.00322606
0.00161902
0
0
0.00168772
0.00337988
0.00506391
0.00673573
0.00839133
0.0100267
0.0116379
0.0132211
0.0147725
0.0162882
0.0177647
0.0191984
0.0205859
0.0219238
0.0232088
0.024438
0.0256082
0.0267168
0.027761
0.0287384
0.0296465
0.0304831
0.0312464
0.0319343
0.0325454
0.033078
0.033531
0.0339031
0.0341936
0.0344017
0.034527
0.034569
0.0345278
0.0344034
0.0341961
0.0339064
0.0335351
0.033083
0.0325511
0.0319409
0.0312537
0.0304912
0.0296552
0.0287478
0.0277712
0.0267276
0.0256197
0.02445
0.0232214
0.0219369
0.0205996
0.0192126
0.0177793
0.0163032
0.0147879
0.0132369
0.011654
0.010043
0.00840784
0.00675243
0.00508075
0.00339683
0.00170472
0
0
0.0017685
0.00354166
0.00530628
0.00705812
0.00879296
0.0105066
0.012195
0.0138539
0.0154795
0.0170678
0.018615
0.0201173
0.0215712
0.0229731
0.0243197
0.0256076
0.0268339
0.0279956
0.0290898
0.0301139
0.0310654
0.0319422
0.0327419
0.0334628
0.0341031
0.0346612
0.0351359
0.0355258
0.0358302
0.0360483
0.0361795
0.0362236
0.0361804
0.03605
0.0358328
0.0355293
0.0351402
0.0346664
0.0341091
0.0334697
0.0327496
0.0319506
0.0310746
0.0301238
0.0291004
0.0280069
0.0268459
0.0256203
0.0243329
0.0229869
0.0215855
0.0201322
0.0186303
0.0170836
0.0154956
0.0138704
0.0122118
0.0105237
0.00881027
0.00707562
0.00532393
0.00355941
0.00178632
0
0
0.00184502
0.0036949
0.00553587
0.00736351
0.00917342
0.0109612
0.0127226
0.0144534
0.0161493
0.0178063
0.0194204
0.0209878
0.0225045
0.0239671
0.0253719
0.0267156
0.027995
0.0292069
0.0303484
0.0314168
0.0324096
0.0333242
0.0341586
0.0349107
0.0355787
0.0361609
0.0366561
0.037063
0.0373805
0.037608
0.0377449
0.0377909
0.0377458
0.0376099
0.0373832
0.0370666
0.0366606
0.0361663
0.0355849
0.0349178
0.0341666
0.033333
0.0324191
0.0314272
0.0303595
0.0292187
0.0280075
0.0267288
0.0253857
0.0239815
0.0225195
0.0210032
0.0194364
0.0178227
0.0161661
0.0144706
0.0127401
0.010979
0.00919147
0.00738177
0.00555428
0.00371342
0.00186361
0
0
0.00191709
0.00383923
0.00575213
0.00765116
0.00953177
0.0113894
0.0132196
0.015018
0.0167801
0.0185019
0.0201791
0.0218076
0.0233837
0.0249034
0.0263631
0.0277593
0.0290886
0.0303478
0.0315339
0.0326441
0.0336756
0.034626
0.035493
0.0362744
0.0369685
0.0375735
0.038088
0.0385108
0.0388408
0.0390772
0.0392194
0.0392672
0.0392204
0.0390791
0.0388436
0.0385146
0.0380927
0.0375792
0.036975
0.0362818
0.0355012
0.0346351
0.0336856
0.0326548
0.0315455
0.0303601
0.0291016
0.0277729
0.0263774
0.0249183
0.0233992
0.0218237
0.0201957
0.018519
0.0167976
0.0150358
0.0132378
0.0114079
0.00955053
0.00767013
0.00577126
0.00385848
0.00193641
0
0
0.00198455
0.00397432
0.00595453
0.00792038
0.00986716
0.0117902
0.0136848
0.0155464
0.0173706
0.0191529
0.0208891
0.022575
0.0242065
0.0257796
0.0272907
0.028736
0.0301121
0.0314156
0.0326435
0.0337927
0.0348605
0.0358444
0.0367419
0.0375508
0.0382693
0.0388956
0.0394282
0.0398659
0.0402074
0.0404521
0.0405994
0.0406489
0.0406004
0.0404541
0.0402104
0.0398698
0.0394331
0.0389014
0.0382761
0.0375585
0.0367504
0.0358538
0.0348708
0.0338039
0.0326554
0.0314283
0.0301255
0.0287502
0.0273055
0.0257951
0.0242225
0.0225916
0.0209063
0.0191706
0.0173887
0.0155649
0.0137036
0.0118093
0.00988658
0.00794002
0.00597433
0.00399425
0.00200454
0
0
0.00204722
0.00409984
0.00614258
0.00817052
0.0101788
0.0121625
0.0141169
0.0160374
0.0179192
0.0197578
0.0215488
0.0232879
0.0249709
0.0265938
0.0281526
0.0296435
0.0310631
0.0324078
0.0336744
0.03486
0.0359615
0.0369764
0.0379022
0.0387367
0.0394779
0.040124
0.0406734
0.0411249
0.0414772
0.0417297
0.0418816
0.0419326
0.0418826
0.0417317
0.0414803
0.0411289
0.0406785
0.04013
0.0394849
0.0387446
0.037911
0.0369861
0.0359721
0.0348714
0.0336867
0.0324209
0.0310769
0.0296581
0.0281679
0.0266097
0.0249875
0.0233051
0.0215665
0.019776
0.0179378
0.0160565
0.0141364
0.0121823
0.0101988
0.00819077
0.00616301
0.00412039
0.00206785
0
0
0.00210497
0.00421548
0.00631583
0.00840097
0.0104659
0.0125056
0.0145151
0.0164897
0.0184246
0.0203151
0.0221566
0.0239448
0.0256753
0.0273439
0.0289466
0.0304796
0.0319392
0.0333219
0.0346242
0.0358432
0.0369758
0.0380193
0.0389713
0.0398293
0.0405914
0.0412557
0.0418206
0.0422848
0.0426471
0.0429067
0.0430629
0.0431153
0.0430639
0.0429088
0.0426502
0.042289
0.0418258
0.0412619
0.0405986
0.0398374
0.0389803
0.0380293
0.0369867
0.035855
0.0346369
0.0333353
0.0319535
0.0304947
0.0289624
0.0273603
0.0256923
0.0239624
0.0221748
0.0203338
0.0184438
0.0165093
0.0145351
0.0125259
0.0104865
0.0084218
0.00633684
0.00423661
0.00212617
0
0
0.00215764
0.00432096
0.00647387
0.00861119
0.0107278
0.0128185
0.0148783
0.0169023
0.0188856
0.0208234
0.022711
0.0245439
0.0263177
0.0280281
0.0296709
0.0312423
0.0327384
0.0341557
0.0354906
0.0367401
0.037901
0.0389707
0.0399464
0.040826
0.0416071
0.0422881
0.0428671
0.0433429
0.0437143
0.0439803
0.0441404
0.0441942
0.0441415
0.0439825
0.0437175
0.0433471
0.0428724
0.0422944
0.0416145
0.0408343
0.0399557
0.0389809
0.0379122
0.0367522
0.0355036
0.0341695
0.0327531
0.0312577
0.0296871
0.0280449
0.0263352
0.024562
0.0227297
0.0208426
0.0189053
0.0169224
0.0148988
0.0128393
0.0107489
0.00863253
0.0064954
0.00434262
0.00217938
0
0
0.00220511
0.00441603
0.00661631
0.00880066
0.0109638
0.0131005
0.0152057
0.0172742
0.0193012
0.0212816
0.0232107
0.025084
0.0268968
0.0286448
0.0303238
0.0319297
0.0334588
0.0349072
0.0362715
0.0375485
0.038735
0.0398281
0.0408254
0.0417242
0.0425226
0.0432185
0.0438103
0.0442966
0.0446761
0.044948
0.0451116
0.0451666
0.0451127
0.0449502
0.0446794
0.0443009
0.0438157
0.043225
0.0425301
0.0417327
0.0408349
0.0398386
0.0387464
0.0375608
0.0362848
0.0349213
0.0334737
0.0319455
0.0303403
0.028662
0.0269146
0.0251025
0.0232298
0.0213012
0.0193213
0.0172948
0.0152266
0.0131218
0.0109854
0.00882247
0.00663832
0.00443817
0.00222733
0
0
0.00224727
0.00450047
0.00674282
0.00896893
0.0111734
0.013351
0.0154964
0.0176045
0.0196702
0.0216885
0.0236545
0.0255636
0.027411
0.0291925
0.0309036
0.0325402
0.0340985
0.0355746
0.036965
0.0382664
0.0394756
0.0405896
0.0416059
0.042522
0.0433356
0.0440448
0.044648
0.0451435
0.0455303
0.0458074
0.0459742
0.0460302
0.0459753
0.0458096
0.0455336
0.0451479
0.0446535
0.0440514
0.0433433
0.0425307
0.0416156
0.0406003
0.0394872
0.038279
0.0369785
0.035589
0.0341137
0.0325563
0.0309204
0.02921
0.0274292
0.0255824
0.023674
0.0217085
0.0196907
0.0176255
0.0155178
0.0133727
0.0111954
0.00899116
0.00676524
0.00452303
0.00226991
0
0
0.00228402
0.00457406
0.00685308
0.00911559
0.0113561
0.0135693
0.0157498
0.0178924
0.0199918
0.0220431
0.0240413
0.0259816
0.0278593
0.0296698
0.0314089
0.0330723
0.0346561
0.0361563
0.0375695
0.0388921
0.0401211
0.0412534
0.0422863
0.0432173
0.0440443
0.0447651
0.045378
0.0458817
0.0462748
0.0465565
0.046726
0.0467829
0.0467271
0.0465587
0.0462782
0.0458862
0.0453836
0.0447718
0.044052
0.0432261
0.0422961
0.0412642
0.0401329
0.0389049
0.0375832
0.036171
0.0346716
0.0330886
0.031426
0.0296876
0.0278778
0.0260007
0.0240611
0.0220635
0.0200127
0.0179137
0.0157715
0.0135914
0.0113785
0.00913818
0.00687587
0.00459699
0.00230703
0
0
0.00231527
0.00463663
0.00694683
0.00924029
0.0115115
0.013755
0.0159653
0.0181372
0.0202653
0.0223447
0.0243702
0.026337
0.0282404
0.0300757
0.0318386
0.0335248
0.0351302
0.036651
0.0380834
0.0394242
0.0406699
0.0418177
0.0428648
0.0438085
0.0446468
0.0453775
0.0459988
0.0465094
0.0469079
0.0471934
0.0473652
0.0474229
0.0473663
0.0471956
0.0469113
0.0465139
0.0460045
0.0453842
0.0446546
0.0438175
0.0428747
0.0418287
0.0406819
0.0394372
0.0380974
0.0366658
0.0351459
0.0335413
0.0318559
0.0300938
0.0282591
0.0263564
0.0243902
0.0223653
0.0202864
0.0181587
0.0159873
0.0137773
0.0115341
0.00926319
0.00696993
0.00465987
0.00233859
0
0
0.00234093
0.00468803
0.00702384
0.00934273
0.0116391
0.0139074
0.0161423
0.0183382
0.02049
0.0225924
0.0246404
0.026629
0.0285535
0.0304091
0.0321916
0.0338964
0.0355196
0.0370573
0.0385056
0.0398612
0.0411208
0.0422813
0.04334
0.0442942
0.0451417
0.0458805
0.0465088
0.047025
0.0474279
0.0477166
0.0478903
0.0479486
0.0478914
0.0477189
0.0474314
0.0470296
0.0465145
0.0458874
0.0451497
0.0443032
0.0433501
0.0422925
0.041133
0.0398744
0.0385197
0.0370723
0.0355355
0.0339131
0.0322091
0.0304274
0.0285724
0.0266486
0.0246606
0.0226132
0.0205113
0.01836
0.0161645
0.01393
0.011662
0.00936589
0.0070472
0.00471153
0.00236452
0
0
0.00236096
0.00472814
0.00708394
0.00942266
0.0117387
0.0140264
0.0162804
0.0184951
0.0206653
0.0227857
0.0248512
0.0268568
0.0287978
0.0306693
0.032467
0.0341864
0.0358235
0.0373743
0.0388351
0.0402023
0.0414726
0.0426431
0.0437108
0.0446732
0.045528
0.0462731
0.0469067
0.0474273
0.0478337
0.0481248
0.0483
0.0483588
0.0483012
0.0481271
0.0478372
0.047432
0.0469125
0.04628
0.045536
0.0446823
0.043721
0.0426543
0.0414849
0.0402155
0.0388493
0.0373894
0.0358395
0.0342033
0.0324846
0.0306877
0.0288169
0.0268766
0.0248716
0.0228067
0.0206868
0.0185171
0.0163028
0.0140492
0.0117618
0.00944602
0.00710749
0.00475184
0.00238475
0
0
0.0023753
0.00475686
0.00712696
0.00947989
0.01181
0.0141116
0.0163793
0.0186075
0.0207908
0.0229241
0.0250021
0.02702
0.0289727
0.0308556
0.0326642
0.0343941
0.0360411
0.0376013
0.039071
0.0404465
0.0417245
0.0429021
0.0439763
0.0449445
0.0458045
0.0465541
0.0471916
0.0477154
0.0481242
0.0484171
0.0485934
0.0486526
0.0485945
0.0484195
0.0481277
0.0477201
0.0471974
0.0465611
0.0458126
0.0449537
0.0439865
0.0429134
0.0417369
0.0404598
0.0390852
0.0376165
0.0360572
0.034411
0.0326819
0.0308741
0.0289919
0.0270399
0.0250227
0.0229452
0.0208125
0.0186296
0.0164018
0.0141346
0.0118332
0.00950339
0.00715066
0.00478071
0.00239923
0
0
0.00238392
0.00477412
0.00715282
0.00951429
0.0118528
0.0141628
0.0164387
0.018675
0.0208663
0.0230073
0.0250929
0.027118
0.0290778
0.0309675
0.0327827
0.0345189
0.0361719
0.0377378
0.0392127
0.0405932
0.0418759
0.0430577
0.0441358
0.0451076
0.0459707
0.046723
0.0473628
0.0478885
0.0482988
0.0485928
0.0487697
0.0488291
0.0487709
0.0485951
0.0483023
0.0478932
0.0473687
0.04673
0.0459788
0.0451168
0.0441461
0.0430691
0.0418883
0.0406066
0.039227
0.037753
0.036188
0.0345359
0.0328005
0.0309861
0.0290971
0.027138
0.0251135
0.0230285
0.020888
0.0186972
0.0164613
0.0141858
0.0118762
0.00953787
0.00717661
0.00479805
0.00240794
0
0
0.0023868
0.00477988
0.00716145
0.00952576
0.0118671
0.0141799
0.0164585
0.0186975
0.0208914
0.023035
0.0251231
0.0271507
0.0291129
0.0310049
0.0328222
0.0345605
0.0362155
0.0377833
0.03926
0.0406422
0.0419264
0.0431097
0.0441891
0.045162
0.0460261
0.0467794
0.0474199
0.0479463
0.0483571
0.0486514
0.0488285
0.048888
0.0488297
0.0486537
0.0483606
0.0479509
0.0474258
0.0467864
0.0460342
0.0451712
0.0441993
0.043121
0.0419388
0.0406555
0.0392744
0.0377985
0.0362317
0.0345775
0.0328401
0.0310235
0.0291322
0.0271707
0.0251438
0.0230562
0.0209132
0.0187197
0.0164812
0.0142029
0.0118905
0.00954938
0.00718526
0.00480384
0.00241084
0
0
0.00238392
0.00477412
0.00715282
0.00951429
0.0118528
0.0141628
0.0164387
0.018675
0.0208663
0.0230073
0.0250929
0.027118
0.0290778
0.0309675
0.0327827
0.0345189
0.0361719
0.0377378
0.0392127
0.0405932
0.0418759
0.0430577
0.0441358
0.0451076
0.0459707
0.046723
0.0473628
0.0478885
0.0482988
0.0485928
0.0487697
0.0488291
0.0487709
0.0485951
0.0483023
0.0478932
0.0473687
0.04673
0.0459788
0.0451168
0.0441461
0.0430691
0.0418883
0.0406066
0.039227
0.037753
0.036188