# vtk DataFile Version 3.0
2D field
ASCII
DATASET STRUCTURED_POINTS
DIMENSIONS 201 201 1
ORIGIN 0 0 0
SPACING 0.005 0.005 1
POINT_DATA 40401
SCALARS temperature double 1
LOOKUP_TABLE default
0
0
0
0
0
0
0
0
0
0
0
0
0
0
0
0
0
0
0
0
0
0
0
0
0
0
0
0
0
0
0
0
0
0
0
0
0
0
0
0
0
0
0
0
0
0
0
0
0
0
0
0
0
0
0
0
0
0
0
0
0
0
0
0
0
0
0
0
0
0
0
0
0
0
0
0
0
0
0
0
0
0
0
0
0
0
0
0
0
0
0
0
0
0
0
0
0
0
0
0
0
0
0
0
0
0
0
0
0
0
0
0
0
0
0
0
0
0
0
0
0
0
0
0
0
0
0
0
0
0
0
0
0
0
0
0
0
0
0
0
0
0
0
0
0
0
0
0
0
0
0
0
0
0
0
0
0
0
0
0
0
0
0
0
0
0
0
0
0
0
0
0
0
0
0
0
0
0
0
0
0
0
0
0
0
0
0
0
0
0
0
0
0
0
0
0
0
0
0
0
0
0
3.96723e-17
8.25961e-17
1.32249e-16
1.92574e-16
2.68241e-16
3.64954e-16
4.89807e-16
6.5172e-16
8.61963e-16
1.1348e-15
1.48827e-15
1.94518e-15
2.53423e-15
3.29154e-15
4.26231e-15
5.503e-15
7.08387e-15
9.09209e-15
1.16354e-14
1.48464e-14
1.8888e-14
2.39594e-14
3.03033e-14
3.82143e-14
4.80491e-14
6.02375e-14
7.52956e-14
9.3841e-14
1.1661e-13
1.44477e-13
1.78475e-13
2.19824e-13
2.69953e-13
3.30536e-13
4.03518e-13
4.91157e-13
5.96062e-13
7.21232e-13
8.70099e-13
1.04658e-12
1.25512e-12
1.50074e-12
1.7891e-12
2.12652e-12
2.52004e-12
2.97749e-12
3.50748e-12
4.11948e-12
4.82381e-12
5.63166e-12
6.55513e-12
7.60718e-12
8.80159e-12
1.0153e-11
1.16767e-11
1.33887e-11
1.53055e-11
1.74441e-11
1.98215e-11
2.2455e-11
2.53615e-11
2.85577e-11
3.20593e-11
3.58814e-11
4.00374e-11
4.45392e-11
4.93968e-11
5.46176e-11
6.02066e-11
6.61655e-11
7.24926e-11
7.91826e-11
8.6226e-11
9.36091e-11
1.01314e-10
1.09317e-10
1.17592e-10
1.26105e-10
1.3482e-10
1.43696e-10
1.52685e-10
1.61738e-10
1.70802e-10
1.79819e-10
1.88729e-10
1.97471e-10
2.05981e-10
2.14195e-10
2.22051e-10
2.29484e-10
2.36434e-10
2.42842e-10
2.48654e-10
2.53818e-10
2.58289e-10
2.62026e-10
2.64996e-10
2.6717e-10
2.68528e-10
2.69059e-10
2.68757e-10
2.67625e-10
2.65672e-10
2.62918e-10
2.59388e-10
2.55113e-10
2.50133e-10
2.44491e-10
2.38238e-10
2.31427e-10
2.24116e-10
2.16365e-10
2.08237e-10
1.99795e-10
1.91104e-10
1.82227e-10
1.73226e-10
1.64162e-10
1.55093e-10
1.46074e-10
1.37156e-10
1.28386e-10
1.19807e-10
1.11458e-10
1.03372e-10
9.55789e-11
8.81022e-11
8.09614e-11
7.41715e-11
6.77431e-11
6.16827e-11
5.59929e-11
5.06727e-11
4.57181e-11
4.11223e-11
3.68758e-11
3.29671e-11
2.93832e-11
2.61093e-11
2.31298e-11
2.04282e-11
1.79875e-11
1.57904e-11
1.38198e-11
1.20585e-11
1.049e-11
9.09794e-12
7.86685e-12
6.78187e-12
5.82894e-12
4.99485e-12
4.26726e-12
3.63472e-12
3.08667e-12
2.6134e-12
2.20608e-12
1.85667e-12
1.55794e-12
1.30337e-12
1.08715e-12
9.04091e-13
7.49621e-13
6.19694e-13
5.10764e-13
4.19732e-13
3.43901e-13
2.80934e-13
2.28816e-13
1.85815e-13
1.50449e-13
1.21454e-13
9.77569e-14
7.84513e-14
6.27724e-14
5.0079e-14
3.98346e-14
3.15925e-14
2.4982e-14
1.96966e-14
1.54838e-14
1.21362e-14
9.48439e-15
7.39021e-15
5.74146e-15
4.44736e-15
3.43469e-15
2.64462e-15
2.03003e-15
1.55327e-15
1.18442e-15
8.9969e-16
6.8027e-16
5.1128e-16
3.80964e-16
2.80014e-16
2.0103e-16
1.38058e-16
8.62249e-17
4.14156e-17
0
0
8.25907e-17
1.71952e-16
2.75324e-16
4.00917e-16
5.58456e-16
7.59817e-16
1.01978e-15
1.3569e-15
1.79467e-15
2.36279e-15
3.09883e-15
4.05028e-15
5.27695e-15
6.85402e-15
8.87567e-15
1.14595e-14
1.47519e-14
1.89344e-14
2.42315e-14
3.09194e-14
3.93376e-14
4.9901e-14
6.31152e-14
7.95943e-14
1.00081e-13
1.25472e-13
1.56841e-13
1.95477e-13
2.42913e-13
3.00971e-13
3.71806e-13
4.57958e-13
5.62409e-13
6.88643e-13
8.40718e-13
1.02334e-12
1.24195e-12
1.5028e-12
1.81304e-12
2.18084e-12
2.61546e-12
3.12739e-12
3.7284e-12
4.43169e-12
5.25195e-12
6.20548e-12
7.31026e-12
8.58603e-12
1.00543e-11
1.17384e-11
1.36637e-11
1.5857e-11
1.83473e-11
2.11649e-11
2.43419e-11
2.79116e-11
3.19084e-11
3.63678e-11
4.13253e-11
4.6817e-11
5.28782e-11
5.95437e-11
6.68464e-11
7.48175e-11
8.34853e-11
9.28746e-11
1.03006e-10
1.13896e-10
1.25553e-10
1.37983e-10
1.51181e-10
1.65136e-10
1.79828e-10
1.9523e-10
2.11303e-10
2.27999e-10
2.45261e-10
2.63022e-10
2.81204e-10
2.99721e-10
3.18476e-10
3.37365e-10
3.56275e-10
3.75088e-10
3.93679e-10
4.11918e-10
4.29675e-10
4.46815e-10
4.63206e-10
4.78717e-10
4.93219e-10
5.06592e-10
5.1872e-10
5.29496e-10
5.38826e-10
5.46625e-10
5.52821e-10
5.57359e-10
5.60195e-10
5.61304e-10
5.60674e-10
5.58312e-10
5.54239e-10
5.48494e-10
5.41128e-10
5.32209e-10
5.21818e-10
5.10047e-10
4.96999e-10
4.82788e-10
4.67533e-10
4.5136e-10
4.34401e-10
4.16788e-10
3.98654e-10
3.80132e-10
3.61353e-10
3.42442e-10
3.2352e-10
3.04702e-10
2.86096e-10
2.67799e-10
2.49901e-10
2.32482e-10
2.15614e-10
1.99355e-10
1.83758e-10
1.68861e-10
1.54697e-10
1.41287e-10
1.28644e-10
1.16776e-10
1.05678e-10
9.53433e-11
8.5757e-11
7.68996e-11
6.87472e-11
6.12722e-11
5.4444e-11
4.82299e-11
4.25955e-11
3.75053e-11
3.29235e-11
2.88139e-11
2.51412e-11
2.18703e-11
1.89676e-11
1.64005e-11
1.41382e-11
1.21513e-11
1.04123e-11
8.89529e-12
7.57653e-12
6.43394e-12
5.44729e-12
4.59815e-12
3.86977e-12
3.24705e-12
2.7164e-12
2.2657e-12
1.88414e-12
1.56218e-12
1.29138e-12
1.06435e-12
8.74631e-13
7.16594e-13
5.85372e-13
4.76763e-13
3.87155e-13
3.13458e-13
2.5304e-13
2.03664e-13
1.63439e-13
1.30771e-13
1.04325e-13
8.29812e-14
6.581e-14
5.20384e-14
4.10276e-14
3.22515e-14
2.52781e-14
1.97542e-14
1.5392e-14
1.19578e-14
9.2623e-15
7.15309e-15
5.50756e-15
4.22753e-15
3.23462e-15
2.46643e-15
1.87347e-15
1.41653e-15
1.06462e-15
7.93252e-16
5.83042e-16
4.18575e-16
2.87454e-16
1.79529e-16
8.62308e-17
0
0
1.32227e-16
2.75296e-16
4.40803e-16
6.41894e-16
8.94146e-16
1.21658e-15
1.63286e-15
2.17274e-15
2.87382e-15
3.78367e-15
4.96252e-15
6.48642e-15
8.45122e-15
1.09774e-14
1.42158e-14
1.8355e-14
2.36294e-14
3.03301e-14
3.88168e-14
4.95324e-14
6.30208e-14
7.99472e-14
1.01122e-13
1.2753e-13
1.60363e-13
2.01056e-13
2.51333e-13
3.1326e-13
3.89295e-13
4.82362e-13
5.95916e-13
7.34032e-13
9.01491e-13
1.10388e-12
1.34772e-12
1.64056e-12
1.99111e-12
2.40942e-12
2.90696e-12
3.49685e-12
4.19395e-12
5.01508e-12
5.97916e-12
7.10734e-12
8.42325e-12
9.95304e-12
1.17256e-11
1.37726e-11
1.61286e-11
1.88311e-11
2.19206e-11
2.54406e-11
2.94373e-11
3.39597e-11
3.90591e-11
4.47891e-11
5.12051e-11
5.83639e-11
6.6323e-11
7.514e-11
8.48719e-11
9.55744e-11
1.07301e-10
1.20101e-10
1.34021e-10
1.491e-10
1.65371e-10
1.82861e-10
2.01586e-10
2.21551e-10
2.42751e-10
2.65168e-10
2.88772e-10
3.13515e-10
3.39338e-10
3.66163e-10
3.93899e-10
4.22436e-10
4.51652e-10
4.81406e-10
5.11544e-10
5.41899e-10
5.72288e-10
6.02523e-10
6.32401e-10
6.61715e-10
6.90255e-10
7.17804e-10
7.4415e-10
7.69081e-10
7.92392e-10
8.13888e-10
8.33384e-10
8.50708e-10
8.65707e-10
8.78245e-10
8.88208e-10
8.95504e-10
9.00066e-10
9.0185e-10
9.00841e-10
8.97047e-10
8.90503e-10
8.8127e-10
8.69433e-10
8.551e-10
8.38399e-10
8.19481e-10
7.98511e-10
7.75671e-10
7.51153e-10
7.25161e-10
6.97905e-10
6.69598e-10
6.40454e-10
6.10687e-10
5.80507e-10
5.50116e-10
5.19708e-10
4.89468e-10
4.59568e-10
4.30166e-10
4.01406e-10
3.73418e-10
3.46313e-10
3.2019e-10
2.95129e-10
2.71195e-10
2.48439e-10
2.26895e-10
2.06586e-10
1.87519e-10
1.69693e-10
1.53092e-10
1.37694e-10
1.23468e-10
1.10374e-10
9.83691e-11
8.74033e-11
7.74241e-11
6.83763e-11
6.02027e-11
5.28457e-11
4.62475e-11
4.03507e-11
3.50995e-11
3.04396e-11
2.63188e-11
2.26873e-11
1.9498e-11
1.67067e-11
1.42721e-11
1.21556e-11
1.0322e-11
8.73868e-12
7.37611e-12
6.20739e-12
5.20824e-12
4.35688e-12
3.63381e-12
3.02172e-12
2.50525e-12
2.07087e-12
1.70672e-12
1.40243e-12
1.14897e-12
9.38529e-13
7.64359e-13
6.20668e-13
5.02498e-13
4.05624e-13
3.26459e-13
2.61969e-13
2.09598e-13
1.67202e-13
1.32989e-13
1.05465e-13
8.33913e-14
6.57437e-14
5.16783e-14
4.05027e-14
3.16506e-14
2.46604e-14
1.91574e-14
1.48384e-14
1.14589e-14
8.82251e-15
6.77178e-15
5.1811e-15
3.9505e-15
3.00064e-15
2.2687e-15
1.70503e-15
1.27038e-15
9.33705e-16
6.70303e-16
4.60317e-16
2.87486e-16
1.38083e-16
0
0
1.92515e-16
4.0082e-16
6.41805e-16
9.34618e-16
1.30195e-15
1.7715e-15
2.37776e-15
3.16406e-15
4.1852e-15
5.5105e-15
7.2277e-15
9.44766e-15
1.23101e-14
1.59905e-14
2.07089e-14
2.674e-14
3.44258e-14
4.41905e-14
5.65585e-14
7.21758e-14
9.18355e-14
1.16508e-13
1.47375e-13
1.85872e-13
2.33739e-13
2.93068e-13
3.66377e-13
4.56676e-13
5.67557e-13
7.03283e-13
8.68899e-13
1.07035e-12
1.31462e-12
1.60986e-12
1.9656e-12
2.39284e-12
2.90432e-12
3.51471e-12
4.24077e-12
5.10165e-12
6.11907e-12
7.3176e-12
8.72486e-12
1.03718e-11
1.22929e-11
1.45265e-11
1.71146e-11
2.01037e-11
2.35443e-11
2.74912e-11
3.20037e-11
3.71452e-11
4.29835e-11
4.959e-11
5.70401e-11
6.54122e-11
7.47872e-11
8.52483e-11
9.68796e-11
1.09766e-10
1.2399e-10
1.39633e-10
1.56775e-10
1.75487e-10
1.95837e-10
2.17884e-10
2.41676e-10
2.67251e-10
2.94633e-10
3.2383e-10
3.54836e-10
3.87624e-10
4.22148e-10
4.58342e-10
4.96117e-10
5.35361e-10
5.75938e-10
6.17691e-10
6.60439e-10
7.03976e-10
7.48077e-10
7.92496e-10
8.3697e-10
8.81217e-10
9.24945e-10
9.67851e-10
1.00962e-09
1.04995e-09
1.08851e-09
1.12501e-09
1.15913e-09
1.1906e-09
1.21914e-09
1.24451e-09
1.26647e-09
1.28483e-09
1.29942e-09
1.3101e-09
1.31679e-09
1.31941e-09
1.31793e-09
1.31239e-09
1.30281e-09
1.2893e-09
1.27198e-09
1.251e-09
1.22656e-09
1.19887e-09
1.16818e-09
1.13475e-09
1.09886e-09
1.06082e-09
1.02093e-09
9.79501e-10
9.36848e-10
8.93283e-10
8.49115e-10
8.04639e-10
7.6014e-10
7.15888e-10
6.72134e-10
6.29111e-10
5.87029e-10
5.46078e-10
5.06421e-10
4.68201e-10
4.31537e-10
3.96525e-10
3.63235e-10
3.31722e-10
3.02015e-10
2.74128e-10
2.48055e-10
2.23777e-10
2.0126e-10
1.80456e-10
1.6131e-10
1.43757e-10
1.27724e-10
1.13135e-10
9.99082e-11
8.79603e-11
7.72067e-11
6.75627e-11
5.89446e-11
5.12705e-11
4.44609e-11
3.84395e-11
3.31335e-11
2.8474e-11
2.43962e-11
2.08396e-11
1.77481e-11
1.50698e-11
1.27575e-11
1.07676e-11
9.06089e-12
7.60195e-12
6.35888e-12
5.30322e-12
4.40964e-12
3.65571e-12
3.02166e-12
2.49016e-12
2.04606e-12
1.67617e-12
1.36908e-12
1.11494e-12
9.05286e-13
7.32881e-13
5.91556e-13
4.76073e-13
3.82003e-13
3.05617e-13
2.43785e-13
1.93889e-13
1.53752e-13
1.21565e-13
9.58332e-14
7.5326e-14
5.90332e-14
4.61284e-14
3.59387e-14
2.79174e-14
2.16223e-14
1.66969e-14
1.28547e-14
9.86617e-15
7.54823e-15
5.75511e-15
4.37114e-15
3.30474e-15
2.48354e-15
1.85035e-15
1.35992e-15
9.76249e-16
6.704e-16
4.18682e-16
2.01095e-16
0
0
2.68114e-16
5.58228e-16
8.93873e-16
1.30173e-15
1.81342e-15
2.46755e-15
3.31217e-15
4.4077e-15
5.83051e-15
7.67725e-15
1.00703e-14
1.31641e-14
1.71535e-14
2.22833e-14
2.88604e-14
3.72678e-14
4.79827e-14
6.15967e-14
7.88415e-14
1.00618e-13
1.28034e-13
1.62442e-13
2.05493e-13
2.59191e-13
3.25961e-13
4.08729e-13
5.11006e-13
6.36998e-13
7.91719e-13
9.81124e-13
1.21226e-12
1.49343e-12
1.83439e-12
2.24654e-12
2.74317e-12
3.33968e-12
4.05388e-12
4.90624e-12
5.92023e-12
7.1226e-12
8.54373e-12
1.0218e-11
1.2184e-11
1.44851e-11
1.71694e-11
2.02906e-11
2.39077e-11
2.80854e-11
3.28946e-11
3.8412e-11
4.47206e-11
5.19093e-11
6.00728e-11
6.93115e-11
7.97306e-11
9.14402e-11
1.04554e-10
1.19188e-10
1.3546e-10
1.53489e-10
1.73392e-10
1.95283e-10
2.19272e-10
2.45461e-10
2.73946e-10
3.04807e-10
3.38114e-10
3.73919e-10
4.12257e-10
4.5314e-10
4.96559e-10
5.42476e-10
5.90829e-10
6.41523e-10
6.94435e-10
7.49408e-10
8.06253e-10
8.6475e-10
9.24642e-10
9.85645e-10
1.04744e-09
1.10969e-09
1.17201e-09
1.23402e-09
1.29531e-09
1.35545e-09
1.414e-09
1.47052e-09
1.52459e-09
1.57575e-09
1.62359e-09
1.66771e-09
1.70773e-09
1.74329e-09
1.77409e-09
1.79984e-09
1.8203e-09
1.83529e-09
1.84467e-09
1.84835e-09
1.8463e-09
1.83853e-09
1.82512e-09
1.80618e-09
1.78191e-09
1.75251e-09
1.71825e-09
1.67944e-09
1.63642e-09
1.58957e-09
1.53927e-09
1.48595e-09
1.43004e-09
1.37197e-09
1.31219e-09
1.25114e-09
1.18924e-09
1.12691e-09
1.06455e-09
1.00253e-09
9.41223e-10
8.80939e-10
8.21976e-10
7.64598e-10
7.09038e-10
6.55495e-10
6.04133e-10
5.55087e-10
5.08458e-10
4.64319e-10
4.22714e-10
3.83659e-10
3.47147e-10
3.13151e-10
2.81622e-10
2.52495e-10
2.25691e-10
2.01119e-10
1.78677e-10
1.58256e-10
1.39745e-10
1.23024e-10
1.07976e-10
9.44813e-11
8.24234e-11
7.16872e-11
6.21613e-11
5.37386e-11
4.63173e-11
3.98007e-11
3.40981e-11
2.91248e-11
2.48023e-11
2.10579e-11
1.78253e-11
1.50437e-11
1.26583e-11
1.06193e-11
8.88212e-12
7.40698e-12
6.15843e-12
5.1051e-12
4.21934e-12
3.47691e-12
2.8566e-12
2.34e-12
1.91114e-12
1.55626e-12
1.26352e-12
1.02282e-12
8.25519e-13
6.64312e-13
5.33008e-13
4.26395e-13
3.40102e-13
2.70473e-13
2.14467e-13
1.69557e-13
1.33658e-13
1.05049e-13
8.23215e-14
6.43215e-14
5.01096e-14
3.89228e-14
3.01441e-14
2.3276e-14
1.79187e-14
1.3752e-14
1.05205e-14
8.02081e-15
6.09163e-15
4.60523e-15
3.46068e-15
2.57823e-15
1.89479e-15
1.36016e-15
9.34003e-16
5.83293e-16
2.80154e-16
0
0
3.64712e-16
7.59363e-16
1.21598e-15
1.77087e-15
2.46708e-15
3.35717e-15
4.50655e-15
5.99749e-15
7.93396e-15
1.04476e-14
1.3705e-14
1.79167e-14
2.3348e-14
3.03325e-14
3.9288e-14
5.07369e-14
6.5329e-14
8.38708e-14
1.0736e-13
1.37024e-13
1.74372e-13
2.21251e-13
2.79909e-13
3.5308e-13
4.44073e-13
5.56876e-13
6.96282e-13
8.68027e-13
1.07895e-12
1.33718e-12
1.65234e-12
2.03576e-12
2.50075e-12
3.06289e-12
3.74031e-12
4.55405e-12
5.52843e-12
6.69143e-12
8.07509e-12
9.71597e-12
1.16556e-11
1.39409e-11
1.66247e-11
1.97663e-11
2.34315e-11
2.76936e-11
3.26332e-11
3.83392e-11
4.49083e-11
5.24455e-11
6.10645e-11
7.08868e-11
8.20422e-11
9.4668e-11
1.08909e-10
1.24914e-10
1.42841e-10
1.62848e-10
1.85097e-10
2.0975e-10
2.36969e-10
2.66909e-10
2.99722e-10
3.35548e-10
3.74517e-10
4.16741e-10
4.62315e-10
5.11313e-10
5.6378e-10
6.19737e-10
6.79167e-10
7.42024e-10
8.08219e-10
8.77626e-10
9.50074e-10
1.02535e-09
1.1032e-09
1.18331e-09
1.26534e-09
1.3489e-09
1.43354e-09
1.51881e-09
1.6042e-09
1.68916e-09
1.77313e-09
1.85553e-09
1.93577e-09
2.01323e-09
2.08732e-09
2.15744e-09
2.22301e-09
2.28349e-09
2.33834e-09
2.3871e-09
2.42931e-09
2.46462e-09
2.49268e-09
2.51324e-09
2.52611e-09
2.53117e-09
2.52837e-09
2.51773e-09
2.49937e-09
2.47343e-09
2.44017e-09
2.39989e-09
2.35296e-09
2.29978e-09
2.24084e-09
2.17663e-09
2.10771e-09
2.03465e-09
1.95804e-09
1.87848e-09
1.79657e-09
1.71292e-09
1.62811e-09
1.54272e-09
1.45729e-09
1.37234e-09
1.28835e-09
1.20578e-09
1.12501e-09
1.04643e-09
9.70336e-10
8.97009e-10
8.26675e-10
7.59515e-10
6.95671e-10
6.35239e-10
5.78279e-10
5.24815e-10
4.74838e-10
4.28306e-10
3.85155e-10
3.45295e-10
3.08616e-10
2.74994e-10
2.44289e-10
2.16353e-10
1.9103e-10
1.68159e-10
1.47578e-10
1.29123e-10
1.12635e-10
9.79549e-11
8.49312e-11
7.34169e-11
6.32724e-11
5.43656e-11
4.6572e-11
3.97759e-11
3.38695e-11
2.87537e-11
2.43375e-11
2.0538e-11
1.72797e-11
1.4495e-11
1.21227e-11
1.01085e-11
8.40381e-12
6.96581e-12
5.75669e-12
4.74332e-12
3.89673e-12
3.19175e-12
2.60656e-12
2.12235e-12
1.72298e-12
1.39463e-12
1.12551e-12
9.05646e-13
7.26579e-13
5.81199e-13
4.63539e-13
3.68609e-13
2.92258e-13
2.3104e-13
1.82108e-13
1.43118e-13
1.12145e-13
8.76173e-14
6.82528e-14
5.30116e-14
4.10523e-14
3.16965e-14
2.43993e-14
1.87243e-14
1.43234e-14
1.09194e-14
8.29247e-15
6.26865e-15
4.71039e-15
3.50908e-15
2.57874e-15
1.85104e-15
1.27104e-15
7.93749e-16
3.81229e-16
0
0
4.89382e-16
1.01896e-15
1.63172e-15
2.37643e-15
3.31086e-15
4.50562e-15
6.04856e-15
8.05017e-15
1.06501e-14
1.40253e-14
1.83995e-14
2.40556e-14
3.13501e-14
4.07314e-14
5.27614e-14
6.81417e-14
8.77464e-14
1.1266e-13
1.44223e-13
1.84088e-13
2.34284e-13
2.97295e-13
3.76146e-13
4.74516e-13
5.96856e-13
7.48535e-13
9.36003e-13
1.16698e-12
1.45069e-12
1.79805e-12
2.22204e-12
2.7379e-12
3.36359e-12
4.12007e-12
5.03179e-12
6.1271e-12
7.43877e-12
9.00451e-12
1.08675e-11
1.30771e-11
1.56893e-11
1.87674e-11
2.23826e-11
2.66148e-11
3.15531e-11
3.72961e-11
4.3953e-11
5.16433e-11
6.0498e-11
7.06588e-11
8.2279e-11
9.55232e-11
1.10566e-10
1.27594e-10
1.46802e-10
1.68394e-10
1.92579e-10
2.19573e-10
2.49596e-10
2.82867e-10
3.19603e-10
3.60017e-10
4.04313e-10
4.52682e-10
5.05298e-10
5.62316e-10
6.23865e-10
6.90042e-10
7.60914e-10
8.36504e-10
9.16796e-10
1.00172e-09
1.09117e-09
1.18496e-09
1.28288e-09
1.38462e-09
1.48984e-09
1.59814e-09
1.70904e-09
1.82201e-09
1.93646e-09
2.05177e-09
2.16723e-09
2.28213e-09
2.3957e-09
2.50716e-09
2.61568e-09
2.72047e-09
2.8207e-09
2.91556e-09
3.00428e-09
3.08611e-09
3.16034e-09
3.22631e-09
3.28345e-09
3.33123e-09
3.36922e-09
3.39706e-09
3.41449e-09
3.42136e-09
3.4176e-09
3.40323e-09
3.3784e-09
3.34334e-09
3.29836e-09
3.24388e-09
3.1804e-09
3.10848e-09
3.02875e-09
2.94191e-09
2.84869e-09
2.74988e-09
2.64626e-09
2.53865e-09
2.42787e-09
2.31473e-09
2.20004e-09
2.08456e-09
1.96904e-09
1.85416e-09
1.7406e-09
1.62895e-09
1.51976e-09
1.41352e-09
1.31065e-09
1.21153e-09
1.11646e-09
1.02569e-09
9.39409e-10
8.57743e-10
7.80775e-10
7.08537e-10
6.41015e-10
5.78154e-10
5.19864e-10
4.66024e-10
4.16487e-10
3.71081e-10
3.29619e-10
2.91899e-10
2.57711e-10
2.26836e-10
1.99055e-10
1.74148e-10
1.51896e-10
1.32087e-10
1.14514e-10
9.89798e-11
8.5295e-11
7.32809e-11
6.27697e-11
5.36047e-11
4.56404e-11
3.87429e-11
3.27893e-11
2.76675e-11
2.32759e-11
1.95229e-11
1.63262e-11
1.36122e-11
1.13155e-11
9.37838e-12
7.74974e-12
6.3849e-12
5.24481e-12
4.29552e-12
3.50762e-12
2.85576e-12
2.31816e-12
1.8762e-12
1.51402e-12
1.21814e-12
9.77199e-13
7.81601e-13
6.23313e-13
4.95618e-13
3.92924e-13
3.10592e-13
2.44791e-13
1.92363e-13
1.5072e-13
1.17745e-13
9.17145e-14
7.12284e-14
5.51548e-14
4.25816e-14
3.27758e-14
2.51506e-14
1.92378e-14
1.46648e-14
1.1136e-14
8.41761e-15
6.32474e-15
4.71141e-15
3.46211e-15
2.485e-15
1.70628e-15
1.06552e-15
5.11746e-16
0
0
6.51011e-16
1.35552e-15
2.17075e-15
3.1616e-15
4.405e-15
5.99494e-15
8.0484e-15
1.07125e-14
1.41734e-14
1.86665e-14
2.449e-14
3.20208e-14
4.1734e-14
5.4227e-14
7.02485e-14
9.07341e-14
1.16849e-13
1.50038e-13
1.92089e-13
2.45207e-13
3.12096e-13
3.96069e-13
5.01164e-13
6.32287e-13
7.95378e-13
9.97601e-13
1.24757e-12
1.55558e-12
1.93394e-12
2.39726e-12
2.96283e-12
3.65104e-12
4.48586e-12
5.49529e-12
6.71201e-12
8.17391e-12
9.92477e-12
1.2015e-11
1.45024e-11
1.74529e-11
2.09413e-11
2.50524e-11
2.98815e-11
3.55354e-11
4.21333e-11
4.98074e-11
5.87036e-11
6.89822e-11
8.08183e-11
9.44019e-11
1.09939e-10
1.27648e-10
1.47766e-10
1.70541e-10
1.96235e-10
2.2512e-10
2.57478e-10
2.936e-10
3.33778e-10
3.78309e-10
4.27483e-10
4.81586e-10
5.40892e-10
6.05659e-10
6.7612e-10
7.52484e-10
8.34924e-10
9.23574e-10
1.01852e-09
1.1198e-09
1.22739e-09
1.3412e-09
1.46108e-09
1.5868e-09
1.71804e-09
1.85444e-09
1.99552e-09
2.14072e-09
2.28943e-09
2.44093e-09
2.59443e-09
2.74908e-09
2.90396e-09
3.05809e-09
3.21045e-09
3.35998e-09
3.50559e-09
3.64619e-09
3.78068e-09
3.90799e-09
4.02706e-09
4.13688e-09
4.23651e-09
4.32508e-09
4.40178e-09
4.46593e-09
4.51694e-09
4.55434e-09
4.57777e-09
4.58702e-09
4.58199e-09
4.56275e-09
4.52946e-09
4.48243e-09
4.4221e-09
4.34902e-09
4.26385e-09
4.16736e-09
4.06039e-09
3.94389e-09
3.81883e-09
3.68625e-09
3.54723e-09
3.40287e-09
3.25426e-09
3.10249e-09
2.94864e-09
2.79373e-09
2.63878e-09
2.48471e-09
2.3324e-09
2.18266e-09
2.03623e-09
1.89377e-09
1.75584e-09
1.62294e-09
1.49549e-09
1.3738e-09
1.25814e-09
1.14868e-09
1.04553e-09
9.48716e-10
8.58235e-10
7.74007e-10
6.95912e-10
6.23785e-10
5.57428e-10
4.96612e-10
4.41084e-10
3.90572e-10
3.44795e-10
3.03458e-10
2.66267e-10
2.32927e-10
2.03144e-10
1.76634e-10
1.53119e-10
1.32335e-10
1.14027e-10
9.79555e-11
8.38964e-11
7.16392e-11
6.09891e-11
5.17666e-11
4.3807e-11
3.69603e-11
3.10905e-11
2.60747e-11
2.18029e-11
1.81765e-11
1.51082e-11
1.25205e-11
1.03451e-11
8.52229e-12
6.99983e-12
5.73229e-12
4.68038e-12
3.81018e-12
3.0926e-12
2.50274e-12
2.01941e-12
1.6246e-12
1.30313e-12
1.04219e-12
8.31051e-13
6.60734e-13
5.23777e-13
4.13988e-13
3.26251e-13
2.56353e-13
2.00839e-13
1.56885e-13
1.22191e-13
9.48886e-14
7.34695e-14
5.67164e-14
4.36519e-14
3.34937e-14
2.56173e-14
1.95262e-14
1.48265e-14
1.12064e-14
8.41955e-15
6.27144e-15
4.6082e-15
3.30745e-15
2.27089e-15
1.41805e-15
6.81047e-16
0
0
8.60827e-16
1.79243e-15
2.87052e-15
4.18097e-15
5.82559e-15
7.92876e-15
1.06453e-14
1.41701e-14
1.87493e-14
2.4695e-14
3.24018e-14
4.2369e-14
5.52258e-14
7.17635e-14
9.29742e-14
1.20097e-13
1.54677e-13
1.98628e-13
2.54321e-13
3.24677e-13
4.13283e-13
5.24531e-13
6.63776e-13
8.37525e-13
1.05366e-12
1.32168e-12
1.65301e-12
2.06133e-12
2.56297e-12
3.17731e-12
3.92731e-12
4.84006e-12
5.94737e-12
7.28647e-12
8.90072e-12
1.08405e-11
1.3164e-11
1.59381e-11
1.92398e-11
2.31566e-11
2.77882e-11
3.32471e-11
3.96601e-11
4.71695e-11
5.59338e-11
6.61288e-11
7.79488e-11
9.16073e-11
1.07337e-10
1.25392e-10
1.46045e-10
1.6959e-10
1.9634e-10
2.26627e-10
2.60798e-10
2.99219e-10
3.42266e-10
3.90324e-10
4.43787e-10
5.03046e-10
5.68494e-10
6.4051e-10
7.19461e-10
8.0569e-10
8.99512e-10
1.00121e-09
1.111e-09
1.22908e-09
1.35556e-09
1.49049e-09
1.63384e-09
1.7855e-09
1.94526e-09
2.11281e-09
2.28776e-09
2.46958e-09
2.65766e-09
2.85126e-09
3.04954e-09
3.25157e-09
3.45628e-09
3.66254e-09
3.86912e-09
4.07472e-09
4.27797e-09
4.47746e-09
4.67174e-09
4.85935e-09
5.03881e-09
5.2087e-09
5.36761e-09
5.51418e-09
5.64717e-09
5.76539e-09
5.86779e-09
5.95344e-09
6.02156e-09
6.0715e-09
6.10282e-09
6.11521e-09
6.10855e-09
6.08291e-09
6.03852e-09
5.9758e-09
5.89533e-09
5.79784e-09
5.68423e-09
5.5555e-09
5.41279e-09
5.25736e-09
5.09051e-09
4.91364e-09
4.72818e-09
4.53559e-09
4.33734e-09
4.13488e-09
3.92965e-09
3.72303e-09
3.51635e-09
3.31086e-09
3.10774e-09
2.90805e-09
2.71279e-09
2.52282e-09
2.33892e-09
2.16174e-09
1.99183e-09
1.82962e-09
1.67545e-09
1.52956e-09
1.39209e-09
1.26308e-09
1.14252e-09
1.0303e-09
9.26265e-10
8.30188e-10
7.41805e-10
6.6081e-10
5.86865e-10
5.19609e-10
4.58661e-10
4.03633e-10
3.54129e-10
3.09755e-10
2.70121e-10
2.34846e-10
2.0356e-10
1.7591e-10
1.51557e-10
1.30182e-10
1.11486e-10
9.51874e-11
8.10277e-11
6.87675e-11
5.81875e-11
4.90878e-11
4.12874e-11
3.46228e-11
2.89473e-11
2.413e-11
2.00545e-11
1.66177e-11
1.3729e-11
1.13087e-11
9.28745e-12
7.60485e-12
6.20864e-12
5.05376e-12
4.10153e-12
3.31889e-12
2.67766e-12
2.15394e-12
1.72755e-12
1.38148e-12
1.10149e-12
8.7566e-13
6.94084e-13
5.48543e-13
4.32247e-13
3.39607e-13
2.66039e-13
2.07796e-13
1.61828e-13
1.25658e-13
9.72843e-14
7.5094e-14
5.77912e-14
4.43387e-14
3.39092e-14
2.58444e-14
1.96224e-14
1.48301e-14
1.11413e-14
8.29817e-15
6.09702e-15
4.37577e-15
3.00426e-15
1.87594e-15
9.00934e-16
0
0
1.13303e-15
2.35927e-15
3.77843e-15
5.50362e-15
7.66894e-15
1.04383e-14
1.40156e-14
1.86577e-14
2.4689e-14
3.25208e-14
4.26734e-14
5.58049e-14
7.27451e-14
9.45373e-14
1.2249e-13
1.58238e-13
2.03817e-13
2.61756e-13
3.35181e-13
4.27947e-13
5.44789e-13
6.91503e-13
8.7516e-13
1.10435e-12
1.38948e-12
1.7431e-12
2.1803e-12
2.71916e-12
3.38124e-12
4.19216e-12
5.18228e-12
6.38739e-12
7.84955e-12
9.61798e-12
1.17501e-11
1.43124e-11
1.73819e-11
2.10474e-11
2.54104e-11
3.05868e-11
3.67087e-11
4.3925e-11
5.24038e-11
6.23333e-11
7.39235e-11
8.74076e-11
1.03043e-10
1.21113e-10
1.41925e-10
1.65817e-10
1.93151e-10
2.24316e-10
2.59728e-10
2.99826e-10
3.45074e-10
3.95955e-10
4.52969e-10
5.16629e-10
5.87456e-10
6.65973e-10
7.52699e-10
8.48141e-10
9.52786e-10
1.06709e-09
1.19148e-09
1.32631e-09
1.47191e-09
1.62851e-09
1.79627e-09
1.97525e-09
2.16543e-09
2.36664e-09
2.57863e-09
2.80098e-09
3.03316e-09
3.2745e-09
3.52416e-09
3.78117e-09
4.04443e-09
4.31267e-09
4.58451e-09
4.85843e-09
5.13279e-09
5.40588e-09
5.67586e-09
5.94087e-09
6.19897e-09
6.44822e-09
6.68668e-09
6.91242e-09
7.12359e-09
7.31839e-09
7.49513e-09
7.65227e-09
7.7884e-09
7.90227e-09
7.99284e-09
8.05927e-09
8.10095e-09
8.11747e-09
8.10869e-09
8.07468e-09
8.01575e-09
7.93247e-09
7.82559e-09
7.69609e-09
7.54517e-09
7.37416e-09
7.18459e-09
6.97811e-09
6.75646e-09
6.5215e-09
6.27514e-09
6.01931e-09
5.75597e-09
5.48706e-09
5.21447e-09
4.94005e-09
4.66556e-09
4.39266e-09
4.12292e-09
3.85777e-09
3.5985e-09
3.34629e-09
3.10214e-09
2.86693e-09
2.64139e-09
2.4261e-09
2.22149e-09
2.02789e-09
1.84547e-09
1.6743e-09
1.51435e-09
1.36549e-09
1.22749e-09
1.10006e-09
9.82855e-10
8.75455e-10
7.77413e-10
6.8825e-10
6.07459e-10
5.34523e-10
4.68916e-10
4.10115e-10
3.57601e-10
3.10868e-10
2.69425e-10
2.32802e-10
2.00551e-10
1.72247e-10
1.47493e-10
1.25916e-10
1.07173e-10
9.09467e-11
7.69456e-11
6.4905e-11
5.45849e-11
4.57686e-11
3.82617e-11
3.18907e-11
2.65014e-11
2.19573e-11
1.81383e-11
1.4939e-11
1.22675e-11
1.00439e-11
8.19897e-12
6.67312e-12
5.41518e-12
4.38139e-12
3.53449e-12
2.84288e-12
2.27986e-12
1.82296e-12
1.45334e-12
1.15525e-12
9.15606e-13
7.2354e-13
5.70086e-13
4.47859e-13
3.50806e-13
2.73979e-13
2.13349e-13
1.65648e-13
1.28232e-13
9.89737e-14
7.61617e-14
5.84277e-14
4.46802e-14
3.40507e-14
2.58509e-14
1.95359e-14
1.46754e-14
1.09296e-14
8.02992e-15
5.76265e-15
3.95625e-15
2.47029e-15
1.18635e-15
0
0
1.48559e-15
3.09345e-15
4.95443e-15
7.21691e-15
1.00569e-14
1.36894e-14
1.83823e-14
2.44725e-14
3.23861e-14
4.26629e-14
5.59865e-14
7.3221e-14
9.54563e-14
1.24063e-13
1.60761e-13
2.07697e-13
2.67548e-13
3.43635e-13
4.40071e-13
5.61921e-13
7.15413e-13
9.08168e-13
1.14948e-12
1.45067e-12
1.8254e-12
2.2902e-12
2.86493e-12
3.57338e-12
4.44392e-12
5.51031e-12
6.8125e-12
8.39764e-12
1.03211e-11
1.26478e-11
1.54533e-11
1.88253e-11
2.28654e-11
2.76904e-11
3.34343e-11
4.02501e-11
4.83117e-11
5.78158e-11
6.8984e-11
8.20649e-11
9.73355e-11
1.15104e-10
1.3571e-10
1.59527e-10
1.86963e-10
2.18463e-10
2.54505e-10
2.95604e-10
3.4231e-10
3.95204e-10
4.54899e-10
5.22034e-10
5.97271e-10
6.8129e-10
7.74779e-10
8.78432e-10
9.92936e-10
1.11896e-09
1.25716e-09
1.40813e-09
1.57244e-09
1.75057e-09
1.94294e-09
2.14987e-09
2.37157e-09
2.60814e-09
2.85952e-09
3.12553e-09
3.4058e-09
3.69981e-09
4.00685e-09
4.32603e-09
4.65624e-09
4.99622e-09
5.34449e-09
5.69938e-09
6.05906e-09
6.42152e-09
6.78461e-09
7.14602e-09
7.50337e-09
7.85415e-09
8.19582e-09
8.52579e-09
8.8415e-09
9.1404e-09
9.42002e-09
9.67798e-09
9.91206e-09
1.01202e-08
1.03005e-08
1.04513e-08
1.05713e-08
1.06594e-08
1.07147e-08
1.07366e-08
1.07251e-08
1.06801e-08
1.06022e-08
1.0492e-08
1.03505e-08
1.01791e-08
9.97938e-09
9.75303e-09
9.5021e-09
9.22877e-09
8.93538e-09
8.62438e-09
8.29828e-09
7.95966e-09
7.61111e-09
7.2552e-09
6.89443e-09
6.53126e-09
6.16802e-09
5.8069e-09
5.44998e-09
5.09916e-09
4.75615e-09
4.42249e-09
4.09952e-09
3.78841e-09
3.4901e-09
3.20537e-09
2.9348e-09
2.67881e-09
2.43762e-09
2.21133e-09
1.9999e-09
1.80313e-09
1.62075e-09
1.45236e-09
1.29748e-09
1.15558e-09
1.02607e-09
9.08289e-10
8.01584e-10
7.05264e-10
6.18633e-10
5.40998e-10
4.71672e-10
4.09986e-10
3.55289e-10
3.0696e-10
2.64405e-10
2.27063e-10
1.94408e-10
1.65949e-10
1.41231e-10
1.19834e-10
1.01374e-10
8.55005e-11
7.18972e-11
6.02775e-11
5.0385e-11
4.19904e-11
3.48902e-11
2.89043e-11
2.38742e-11
1.96609e-11
1.61432e-11
1.32155e-11
1.07868e-11
8.77833e-12
7.12273e-12
5.76231e-12
4.64796e-12
3.73806e-12
2.99743e-12
2.39646e-12
1.91035e-12
1.51836e-12
1.20326e-12
9.50757e-13
7.49034e-13
5.8838e-13
4.60829e-13
3.5987e-13
2.80205e-13
2.17534e-13
1.68383e-13
1.29951e-13
9.99897e-14
7.67004e-14
5.86481e-14
4.46917e-14
3.39265e-14
2.56365e-14
1.92567e-14
1.43405e-14
1.05352e-14
7.56007e-15
5.18997e-15
3.24051e-15
1.55621e-15
0
0
1.94118e-15
4.04223e-15
6.47421e-15
9.43117e-15
1.31433e-14
1.78918e-14
2.4027e-14
3.19898e-14
4.23376e-14
5.5777e-14
7.32024e-14
9.5745e-14
1.24831e-13
1.62257e-13
2.10271e-13
2.71688e-13
3.50012e-13
4.49595e-13
5.75823e-13
7.35335e-13
9.3629e-13
1.18868e-12
1.50469e-12
1.89914e-12
2.38997e-12
2.99885e-12
3.75183e-12
4.6801e-12
5.82091e-12
7.21854e-12
8.92542e-12
1.10035e-11
1.35254e-11
1.65763e-11
2.02555e-11
2.46783e-11
2.99781e-11
3.63083e-11
4.3845e-11
5.27894e-11
6.33701e-11
7.58457e-11
9.05077e-11
1.07683e-10
1.27736e-10
1.51072e-10
1.78139e-10
2.09428e-10
2.45476e-10
2.86869e-10
3.34238e-10
3.8826e-10
4.4966e-10
5.19204e-10
5.97701e-10
6.85993e-10
7.84953e-10
8.95478e-10
1.01848e-09
1.15487e-09
1.30555e-09
1.47143e-09
1.65334e-09
1.85209e-09
2.06843e-09
2.303e-09
2.55634e-09
2.8289e-09
3.12094e-09
3.4326e-09
3.76382e-09
4.11434e-09
4.48371e-09
4.87122e-09
5.27594e-09
5.6967e-09
6.13206e-09
6.58034e-09
7.03958e-09
7.50761e-09
7.98199e-09
8.46009e-09
8.93904e-09
9.41584e-09
9.8873e-09
1.03501e-08
1.0801e-08
1.12364e-08
1.16531e-08
1.20476e-08
1.24167e-08
1.27572e-08
1.30662e-08
1.3341e-08
1.3579e-08
1.37782e-08
1.39368e-08
1.40531e-08
1.41261e-08
1.41552e-08
1.41401e-08
1.40809e-08
1.39781e-08
1.38328e-08
1.36462e-08
1.34201e-08
1.31565e-08
1.28578e-08
1.25267e-08
1.21661e-08
1.1779e-08
1.13686e-08
1.09384e-08
1.04916e-08
1.00318e-08
9.5622e-09
9.08627e-09
8.60718e-09
8.12802e-09
7.6517e-09
7.18095e-09
6.71825e-09
6.2659e-09
5.82591e-09
5.40006e-09
4.98986e-09
4.59658e-09
4.22124e-09
3.86459e-09
3.52718e-09
3.20932e-09
2.91113e-09
2.63253e-09
2.3733e-09
2.13303e-09
1.91122e-09
1.70724e-09
1.52037e-09
1.34983e-09
1.19476e-09
1.05428e-09
9.27496e-10
8.13477e-10
7.1131e-10
6.20089e-10
5.3893e-10
4.66977e-10
4.03408e-10
3.47441e-10
2.98337e-10
2.55402e-10
2.17988e-10
1.85496e-10
1.57374e-10
1.33114e-10
1.12258e-10
9.43859e-11
7.91222e-11
6.6129e-11
5.51047e-11
4.57815e-11
3.79225e-11
3.13193e-11
2.5789e-11
2.11723e-11
1.73305e-11
1.41439e-11
1.1509e-11
9.3373e-12
7.55303e-12
6.09169e-12
4.8986e-12
3.92758e-12
3.13977e-12
2.5026e-12
1.98887e-12
1.57596e-12
1.24511e-12
9.80828e-13
7.70378e-13
6.03309e-13
4.71087e-13
3.66764e-13
2.84706e-13
2.20355e-13
1.70044e-13
1.30827e-13
1.00345e-13
7.67209e-14
5.84584e-14
4.43732e-14
3.35277e-14
2.5182e-14
1.87517e-14
1.37748e-14
9.88425e-15
6.78517e-15
4.23635e-15
2.0344e-15
0
0
2.52838e-15
5.2651e-15
8.43313e-15
1.22854e-14
1.71219e-14
2.33095e-14
3.13048e-14
4.16827e-14
5.51706e-14
7.26898e-14
9.54073e-14
1.24799e-13
1.62727e-13
2.11533e-13
2.74154e-13
3.54264e-13
4.56439e-13
5.86361e-13
7.51062e-13
9.59216e-13
1.22148e-12
1.55091e-12
1.96342e-12
2.47839e-12
3.11927e-12
3.91439e-12
4.89778e-12
6.11027e-12
7.60055e-12
9.42655e-12
1.16569e-11
1.43725e-11
1.76687e-11
2.16568e-11
2.64668e-11
3.22497e-11
3.91801e-11
4.74592e-11
5.73176e-11
6.90189e-11
8.28626e-11
9.91879e-11
1.18377e-10
1.40858e-10
1.6711e-10
1.97664e-10
2.33108e-10
2.74085e-10
3.21304e-10
3.75529e-10
4.37591e-10
5.08381e-10
5.8885e-10
6.80005e-10
7.82909e-10
8.98669e-10
1.02843e-09
1.17338e-09
1.33471e-09
1.51363e-09
1.71133e-09
1.92898e-09
2.16771e-09
2.42857e-09
2.71254e-09
3.02049e-09
3.35313e-09
3.71103e-09
4.09457e-09
4.50392e-09
4.939e-09
5.3995e-09
5.88481e-09
6.39401e-09
6.92589e-09
7.4789e-09
8.05115e-09
8.64044e-09
9.24421e-09
9.85958e-09