# vtk DataFile Version 3.0
2D field
ASCII
DATASET STRUCTURED_POINTS
DIMENSIONS 201 201 1
ORIGIN 0 0 0
SPACING 0.005 0.005 1
POINT_DATA 40401
SCALARS temperature double 1
LOOKUP_TABLE default
0
0
0
0
0
0
0
0
0
0
0
0
0
0
0
0
0
0
0
0
0
0
0
0
0
0
0
0
0
0
0
0
0
0
0
0
0
0
0
0
0
0
0
0
0
0
0
0
0
0
0
0
0
0
0
0
0
0
0
0
0
0
0
0
0
0
0
0
0
0
0
0
0
0
0
0
0
0
0
0
0
0
0
0
0
0
0
0
0
0
0
0
0
0
0
0
0
0
0
0
0
0
0
0
0
0
0
0
0
0
0
0
0
0
0
0
0
0
0
0
0
0
0
0
0
0
0
0
0
0
0
0
0
0
0
0
0
0
0
0
0
0
0
0
0
0
0
0
0
0
0
0
0
0
0
0
0
0
0
0
0
0
0
0
0
0
0
0
0
0
0
0
0
0
0
0
0
0
0
0
0
0
0
0
0
0
0
0
0
0
0
0
0
0
0
0
0
0
0
0
0
0
1.14226e-15
2.35653e-15
3.71857e-15
5.31177e-15
7.23136e-15
9.58904e-15
1.25183e-14
1.61805e-14
2.07719e-14
2.65322e-14
3.37544e-14
4.27961e-14
5.40937e-14
6.81781e-14
8.56942e-14
1.07423e-13
1.34306e-13
1.67478e-13
2.08302e-13
2.58406e-13
3.19732e-13
3.9459e-13
4.85715e-13
5.96338e-13
7.30263e-13
8.91951e-13
1.08662e-12
1.32034e-12
1.60017e-12
1.93429e-12
2.33209e-12
2.80441e-12
3.36361e-12
4.02383e-12
4.8011e-12
5.71358e-12
6.78176e-12
8.02863e-12
9.47992e-12
1.11643e-11
1.31135e-11
1.53628e-11
1.79506e-11
2.09193e-11
2.4315e-11
2.81876e-11
3.2591e-11
3.7583e-11
4.32255e-11
4.95838e-11
5.67272e-11
6.47282e-11
7.36621e-11
8.36071e-11
9.46429e-11
1.06851e-10
1.20313e-10
1.35111e-10
1.51325e-10
1.69033e-10
1.88309e-10
2.09223e-10
2.31837e-10
2.56208e-10
2.82383e-10
3.10396e-10
3.40272e-10
3.7202e-10
4.05636e-10
4.41098e-10
4.78366e-10
5.17383e-10
5.5807e-10
6.00329e-10
6.44039e-10
6.8906e-10
7.35228e-10
7.8236e-10
8.30251e-10
8.78678e-10
9.27399e-10
9.76154e-10
1.02467e-09
1.07267e-09
1.11985e-09
1.16591e-09
1.21054e-09
1.25345e-09
1.29433e-09
1.33288e-09
1.36882e-09
1.40187e-09
1.43178e-09
1.45832e-09
1.48128e-09
1.50047e-09
1.51573e-09
1.52694e-09
1.53401e-09
1.53688e-09
1.53552e-09
1.52995e-09
1.5202e-09
1.50637e-09
1.48856e-09
1.46692e-09
1.44162e-09
1.41287e-09
1.38089e-09
1.34592e-09
1.30824e-09
1.26812e-09
1.22586e-09
1.18176e-09
1.13612e-09
1.08926e-09
1.04146e-09
9.93042e-10
9.44282e-10
8.95461e-10
8.46845e-10
7.98682e-10
7.51203e-10
7.04621e-10
6.59126e-10
6.14891e-10
5.72065e-10
5.30775e-10
4.91129e-10
4.53211e-10
4.17087e-10
3.82803e-10
3.50387e-10
3.1985e-10
2.91185e-10
2.64374e-10
2.39386e-10
2.16175e-10
1.94691e-10
1.7487e-10
1.56646e-10
1.39945e-10
1.2469e-10
1.108e-10
9.81947e-11
8.67911e-11
7.65073e-11
6.72623e-11
5.89771e-11
5.1575e-11
4.49822e-11
3.9128e-11
3.39456e-11
2.93716e-11
2.53467e-11
2.18155e-11
1.87268e-11
1.6033e-11
1.36905e-11
1.16595e-11
9.90367e-12
8.39017e-12
7.08932e-12
5.97445e-12
5.02172e-12
4.20987e-12
3.52004e-12
2.93556e-12
2.44173e-12
2.02568e-12
1.67614e-12
1.3833e-12
1.13866e-12
9.34841e-13
7.65512e-13
6.25226e-13
5.09323e-13
4.13829e-13
3.35368e-13
2.71078e-13
2.18543e-13
1.75732e-13
1.40939e-13
1.12739e-13
8.99433e-14
7.15645e-14
5.67846e-14
4.4928e-14
3.5438e-14
2.78571e-14
2.18101e-14
1.69899e-14
1.31449e-14
1.00693e-14
7.59375e-15
5.57807e-15
3.90505e-15
2.47473e-15
1.19956e-15
0
0
2.35638e-15
4.86133e-15
7.67116e-15
1.0958e-14
1.49182e-14
1.97823e-14
2.58259e-14
3.33817e-14
4.2855e-14
5.47404e-14
6.96424e-14
8.82993e-14
1.11611e-13
1.40675e-13
1.76821e-13
2.2166e-13
2.77138e-13
3.45598e-13
4.29849e-13
5.33255e-13
6.59826e-13
8.14329e-13
1.00241e-12
1.23075e-12
1.50719e-12
1.84094e-12
2.24278e-12
2.72525e-12
3.30294e-12
3.99269e-12
4.81396e-12
5.78908e-12
6.94363e-12
8.30677e-12
9.91164e-12
1.17958e-11
1.40014e-11
1.65762e-11
1.95731e-11
2.30515e-11
2.7077e-11
3.17221e-11
3.70668e-11
4.31983e-11
5.02118e-11
5.82107e-11
6.73062e-11
7.7618e-11
8.92736e-11
1.02409e-10
1.17166e-10
1.33695e-10
1.52152e-10
1.72699e-10
1.95501e-10
2.20725e-10
2.48542e-10
2.79119e-10
3.12624e-10
3.49216e-10
3.89051e-10
4.32271e-10
4.79008e-10
5.29377e-10
5.83473e-10
6.41373e-10
7.03124e-10
7.68747e-10
8.38233e-10
9.11536e-10
9.88577e-10
1.06923e-09
1.15335e-09
1.24071e-09
1.33108e-09
1.42415e-09
1.51961e-09
1.61705e-09
1.71607e-09
1.8162e-09
1.91694e-09
2.01776e-09
2.11809e-09
2.21733e-09
2.31489e-09
2.41014e-09
2.50245e-09
2.59118e-09
2.67572e-09
2.75544e-09
2.82977e-09
2.89813e-09
2.96e-09
3.01489e-09
3.06237e-09
3.10206e-09
3.13363e-09
3.15683e-09
3.17146e-09
3.17739e-09
3.17459e-09
3.16307e-09
3.14293e-09
3.11433e-09
3.0775e-09
3.03276e-09
2.98044e-09
2.92098e-09
2.85484e-09
2.78254e-09
2.70461e-09
2.62166e-09
2.53427e-09
2.44307e-09
2.3487e-09
2.25179e-09
2.15296e-09
2.05284e-09
1.95201e-09
1.85106e-09
1.75054e-09
1.65095e-09
1.55278e-09
1.45647e-09
1.36241e-09
1.27095e-09
1.18241e-09
1.09704e-09
1.01508e-09
9.36687e-10
8.62008e-10
7.91134e-10
7.24124e-10
6.60998e-10
6.01745e-10
5.46327e-10
4.94675e-10
4.46701e-10
4.02295e-10
3.6133e-10
3.23665e-10
2.89149e-10
2.57622e-10
2.28919e-10
2.0287e-10
1.79305e-10
1.58055e-10
1.38952e-10
1.21832e-10
1.06538e-10
9.2917e-11
8.0822e-11
7.01152e-11
6.06657e-11
5.23509e-11
4.50564e-11
3.86759e-11
3.31115e-11
2.82729e-11
2.40779e-11
2.04514e-11
1.73255e-11
1.46388e-11
1.23364e-11
1.03688e-11
8.69226e-12
7.26774e-12
6.0608e-12
5.0411e-12
4.18202e-12
3.4603e-12
2.85567e-12
2.35056e-12
1.92977e-12
1.58018e-12
1.29057e-12
1.0513e-12
8.54166e-13
6.92199e-13
5.5949e-13
4.5105e-13
3.62683e-13
2.90869e-13
2.32664e-13
1.85615e-13
1.47683e-13
1.1718e-13
9.27111e-14
7.31263e-14
5.74818e-14
4.50032e-14
3.50564e-14
2.71224e-14
2.0776e-14
1.56679e-14
1.15088e-14
8.05692e-15
5.10583e-15
2.4749e-15
0
0
3.71792e-15
7.67034e-15
1.21039e-14
1.72903e-14
2.35396e-14
3.12155e-14
4.0753e-14
5.26777e-14
6.7629e-14
8.63881e-14
1.09909e-13
1.39358e-13
1.76157e-13
2.22036e-13
2.79096e-13
3.49884e-13
4.37472e-13
5.45558e-13
6.78583e-13
8.41858e-13
1.04172e-12
1.2857e-12
1.58271e-12
1.94331e-12
2.3799e-12
2.90703e-12
3.54173e-12
4.30383e-12
5.21635e-12
6.30596e-12
7.60339e-12
9.14395e-12
1.09681e-11
1.31219e-11
1.56577e-11
1.8635e-11
2.21205e-11
2.61895e-11
3.0926e-11
3.64236e-11
4.27863e-11
5.01289e-11
5.85776e-11
6.82706e-11
7.93587e-11
9.20051e-11
1.06386e-10
1.22691e-10
1.41122e-10
1.61894e-10
1.85232e-10
2.11374e-10
2.40567e-10
2.73066e-10
3.09134e-10
3.49036e-10
3.93042e-10
4.41418e-10
4.94427e-10
5.52326e-10
6.15357e-10
6.83749e-10
7.5771e-10
8.37423e-10
9.2304e-10
1.01468e-09
1.11242e-09
1.2163e-09
1.32629e-09
1.44233e-09
1.5643e-09
1.692e-09
1.82517e-09
1.96349e-09
2.10658e-09
2.25397e-09
2.40513e-09
2.55945e-09
2.71626e-09
2.87485e-09
3.0344e-09
3.19408e-09
3.35299e-09
3.5102e-09
3.66474e-09
3.81562e-09
3.96185e-09
4.10243e-09
4.23635e-09
4.36266e-09
4.48042e-09
4.58873e-09
4.68676e-09
4.77375e-09
4.84899e-09
4.91189e-09
4.96193e-09
4.99869e-09
5.02189e-09
5.03131e-09
5.02689e-09
5.00866e-09
4.97676e-09
4.93147e-09
4.87315e-09
4.80227e-09
4.7194e-09
4.62522e-09
4.52045e-09
4.40591e-09
4.28248e-09
4.15107e-09
4.01264e-09
3.86818e-09
3.7187e-09
3.56519e-09
3.40865e-09
3.25006e-09
3.09036e-09
2.93047e-09
2.77125e-09
2.61353e-09
2.45806e-09
2.30552e-09
2.15656e-09
2.01173e-09
1.87152e-09
1.73634e-09
1.60656e-09
1.48244e-09
1.3642e-09
1.25199e-09
1.1459e-09
1.04596e-09
9.52164e-10
8.64437e-10
7.82678e-10
7.06744e-10
6.3646e-10
5.71625e-10
5.12017e-10
4.57394e-10
4.07505e-10
3.62086e-10
3.20869e-10
2.83584e-10
2.49964e-10
2.19742e-10
1.9266e-10
1.68467e-10
1.46921e-10
1.2779e-10
1.10856e-10
9.59112e-11
8.27617e-11
7.12264e-11
6.11371e-11
5.23385e-11
4.46882e-11
3.80557e-11
3.23224e-11
2.73808e-11
2.31337e-11
1.94942e-11
1.63843e-11
1.37345e-11
1.14831e-11
9.57565e-12
7.96422e-12
6.6067e-12
5.46629e-12
4.51095e-12
3.71289e-12
3.04808e-12
2.4958e-12
2.03828e-12
1.66031e-12
1.34893e-12
1.0931e-12
8.83491e-13
7.12225e-13
5.72667e-13
4.59256e-13
3.67341e-13
2.93047e-13
2.33152e-13
1.84989e-13
1.46354e-13
1.15433e-13
9.07347e-14
7.10348e-14
5.53325e-14
4.28083e-14
3.27906e-14
2.47278e-14
1.81634e-14
1.27153e-14
8.05783e-15
3.90576e-15
0
0
5.31008e-15
1.09552e-14
1.72878e-14
2.4696e-14
3.36228e-14
4.45884e-14
5.82139e-14
7.52506e-14
9.66128e-14
1.23417e-13
1.57027e-13
1.99109e-13
2.51697e-13
3.17266e-13
3.98819e-13
4.99997e-13
6.25194e-13
7.79701e-13
9.69868e-13
1.20329e-12
1.48904e-12
1.83788e-12
2.26259e-12
2.77824e-12
3.40259e-12
4.15647e-12
5.06425e-12
6.15431e-12
7.45962e-12
9.01834e-12
1.08745e-11
1.30786e-11
1.56886e-11
1.87705e-11
2.23993e-11
2.66601e-11
3.16487e-11
3.74727e-11
4.42526e-11
5.21225e-11
6.12315e-11
7.1744e-11
8.38411e-11
9.77208e-11
1.13599e-10
1.31711e-10
1.52308e-10
1.75663e-10
2.02064e-10
2.31821e-10
2.65256e-10
3.02712e-10
3.44542e-10
3.91114e-10
4.42802e-10
4.99991e-10
5.63064e-10
6.32407e-10
7.08397e-10
7.91401e-10
8.81771e-10
9.79834e-10
1.08589e-09
1.2002e-09
1.32298e-09
1.45442e-09
1.59461e-09
1.74361e-09
1.9014e-09
2.06788e-09
2.24286e-09
2.42608e-09
2.61717e-09
2.81567e-09
3.02101e-09
3.23253e-09
3.44947e-09
3.67097e-09
3.89607e-09
4.12371e-09
4.35275e-09
4.58199e-09
4.81014e-09
5.03586e-09
5.25775e-09
5.47441e-09
5.68439e-09
5.88626e-09
6.07859e-09
6.25999e-09
6.42912e-09
6.58469e-09
6.7255e-09
6.85045e-09
6.95854e-09
7.04891e-09
7.1208e-09
7.17364e-09
7.20699e-09
7.22057e-09
7.21425e-09
7.1881e-09
7.14233e-09
7.07732e-09
6.99359e-09
6.89183e-09
6.77286e-09
6.63762e-09
6.48719e-09
6.32273e-09
6.1455e-09
5.95681e-09
5.75805e-09
5.55064e-09
5.33601e-09
5.11561e-09
4.89086e-09
4.66316e-09
4.43389e-09
4.20435e-09
3.97579e-09
3.74937e-09
3.5262e-09
3.30725e-09
3.09344e-09
2.88556e-09
2.68433e-09
2.49034e-09
2.30408e-09
2.12597e-09
1.95631e-09
1.7953e-09
1.64309e-09
1.49971e-09
1.36515e-09
1.23931e-09
1.12203e-09
1.01311e-09
9.12308e-10
8.19326e-10
7.33844e-10
6.55518e-10
5.83983e-10
5.18862e-10
4.59771e-10
4.06321e-10
3.58127e-10
3.14808e-10
2.75993e-10
2.4132e-10
2.10442e-10
1.83029e-10
1.58764e-10
1.37352e-10
1.18514e-10
1.01989e-10
8.7536e-11
7.49335e-11
6.39764e-11
5.44777e-11
4.62674e-11
3.91912e-11
3.31102e-11
2.78994e-11
2.34471e-11
1.96537e-11
1.6431e-11
1.37009e-11
1.13945e-11
9.45173e-12
7.81975e-12
6.45272e-12
5.31081e-12
4.35962e-12
3.5695e-12
2.91499e-12
2.37431e-12
1.92891e-12
1.56299e-12
1.26321e-12
1.01828e-12
8.18708e-13
6.56536e-13
5.2511e-13
4.18885e-13
3.33253e-13
2.64398e-13
2.09169e-13
1.64969e-13
1.29665e-13
1.01508e-13
7.90664e-14
6.11675e-14
4.68517e-14
3.53303e-14
2.59504e-14
1.81662e-14
1.15119e-14
5.57993e-15
0
0
7.2278e-15
1.49118e-14
2.3532e-14
3.3617e-14
4.57701e-14
6.06997e-14
7.92521e-14
1.02451e-13
1.31541e-13
1.68044e-13
2.13819e-13
2.71137e-13
3.42768e-13
4.32086e-13
5.43187e-13
6.81031e-13
8.51609e-13
1.06214e-12
1.32127e-12
1.63938e-12
2.02881e-12
2.50427e-12
3.08317e-12
3.78609e-12
4.63725e-12
5.66507e-12
6.90281e-12
8.38919e-12
1.01692e-11
1.2295e-11
1.48266e-11
1.78331e-11
2.13935e-11
2.55979e-11
3.0549e-11
3.63628e-11
4.31701e-11
5.11182e-11
6.03716e-11
7.11136e-11
8.3548e-11
9.78995e-11
1.14416e-10
1.33368e-10
1.5505e-10
1.79785e-10
2.07916e-10
2.39817e-10
2.75883e-10
3.16535e-10
3.62218e-10
4.13398e-10
4.7056e-10
5.34207e-10
6.04855e-10
6.83026e-10
7.69249e-10
8.64051e-10
9.6795e-10
1.08145e-09
1.20503e-09
1.33915e-09
1.4842e-09
1.64056e-09
1.80853e-09
1.98835e-09
2.18016e-09
2.38404e-09
2.59997e-09
2.8278e-09
3.0673e-09
3.31808e-09
3.57966e-09
3.85139e-09
4.13252e-09
4.42214e-09
4.71919e-09
5.0225e-09
5.33076e-09
5.64253e-09
5.95624e-09
6.27024e-09
6.58276e-09
6.89196e-09
7.19595e-09
7.49279e-09
7.78049e-09
8.05709e-09
8.32064e-09
8.56923e-09
8.80101e-09
9.01423e-09
9.20723e-09
9.3785e-09
9.52668e-09
9.65056e-09
9.74915e-09
9.82162e-09
9.86738e-09
9.88605e-09
9.87746e-09
9.84168e-09
9.77902e-09
9.68998e-09
9.5753e-09
9.4359e-09
9.27292e-09
9.08766e-09
8.88157e-09
8.65626e-09
8.41345e-09
8.15495e-09
7.88266e-09
7.59851e-09
7.30448e-09
7.00255e-09
6.69467e-09
6.38277e-09
6.06872e-09
5.75431e-09
5.44126e-09
5.13116e-09
4.82551e-09
4.52566e-09
4.23287e-09
3.94822e-09
3.67268e-09
3.40707e-09
3.15208e-09
2.90824e-09
2.67598e-09
2.4556e-09
2.24726e-09
2.05103e-09
1.86688e-09
1.69467e-09
1.5342e-09
1.38517e-09
1.24726e-09
1.12006e-09
1.00313e-09
8.95997e-10
7.9816e-10
7.09103e-10
6.28298e-10
5.55214e-10
4.89323e-10
4.30102e-10
3.77041e-10
3.29648e-10
2.87446e-10
2.49982e-10
2.16825e-10
1.87568e-10
1.61829e-10
1.39253e-10
1.19511e-10
1.02297e-10
8.73316e-11
7.43595e-11
6.31479e-11
5.34859e-11
4.51834e-11
3.80696e-11
3.19918e-11
2.6814e-11
2.24155e-11
1.86896e-11
1.55423e-11
1.28913e-11
1.06647e-11
8.79965e-12
7.2419e-12
5.94441e-12
4.86672e-12
3.97407e-12
3.23673e-12
2.62936e-12
2.13042e-12
1.72169e-12
1.38777e-12
1.11571e-12
8.94648e-13
7.1551e-13
5.70732e-13
4.5403e-13
3.60199e-13
2.84942e-13
2.24717e-13
1.76616e-13
1.38256e-13
1.07684e-13
8.33026e-14
6.38033e-14
4.81111e-14
3.53368e-14
2.47361e-14
1.56749e-14
7.59769e-15
0
0
9.58239e-15
1.97699e-14
3.11993e-14
4.45716e-14
6.06875e-14
8.04866e-14
1.05092e-13
1.35862e-13
1.7445e-13
2.22873e-13
2.83601e-13
3.59648e-13
4.54693e-13
5.73214e-13
7.20651e-13
9.03592e-13
1.12999e-12
1.40944e-12
1.75344e-12
2.17575e-12
2.69279e-12
3.32411e-12
4.09284e-12
5.02633e-12
6.15679e-12
7.52201e-12
9.16618e-12
1.11408e-11
1.35058e-11
1.63304e-11
1.96946e-11
2.36901e-11
2.84222e-11
3.4011e-11
4.05927e-11
4.83221e-11
5.73733e-11
6.79423e-11
8.02482e-11
9.45353e-11
1.11075e-10
1.30167e-10
1.5214e-10
1.77356e-10
2.0621e-10
2.39127e-10
2.76569e-10
3.19032e-10
3.67044e-10
4.21168e-10
4.81996e-10
5.5015e-10
6.26279e-10
7.11053e-10
8.0516e-10
9.09301e-10
1.02418e-09
1.1505e-09
1.28896e-09
1.44023e-09
1.60495e-09
1.78373e-09
1.97711e-09
2.18559e-09
2.40956e-09
2.64936e-09
2.90517e-09
3.17712e-09
3.46515e-09
3.76909e-09
4.08862e-09
4.42324e-09
4.7723e-09
5.13494e-09
5.51015e-09
5.89671e-09
6.29324e-09
6.69816e-09
7.10971e-09
7.52598e-09
7.94487e-09
8.36418e-09
8.78154e-09
9.19451e-09
9.60054e-09
9.99703e-09
1.03814e-08
1.07509e-08
1.1103e-08
1.14351e-08
1.17448e-08
1.20297e-08
1.22877e-08
1.25166e-08
1.27146e-08
1.28802e-08
1.30121e-08
1.3109e-08
1.31702e-08
1.31952e-08
1.31839e-08
1.31362e-08
1.30525e-08
1.29337e-08
1.27805e-08
1.25944e-08
1.23767e-08
1.21292e-08
1.1854e-08
1.1553e-08
1.12287e-08
1.08834e-08
1.05197e-08
1.01402e-08
9.74751e-09
9.34425e-09
8.93307e-09
8.51653e-09
8.09713e-09
7.67728e-09
7.25926e-09
6.8452e-09
6.4371e-09
6.03678e-09
5.64589e-09
5.26591e-09
4.8981e-09
4.54358e-09
4.20325e-09
3.87783e-09
3.56789e-09
3.27382e-09
2.99584e-09
2.73405e-09
2.48838e-09
2.25866e-09
2.04462e-09
1.84587e-09
1.66196e-09
1.49234e-09
1.33644e-09
1.1936e-09
1.06318e-09
9.44472e-10
8.36774e-10
7.39375e-10
6.51571e-10
5.72663e-10
5.0197e-10
4.38835e-10
3.82621e-10
3.32722e-10
2.88564e-10
2.49604e-10
2.15333e-10
1.85277e-10
1.58995e-10
1.36082e-10
1.16164e-10
9.89e-11
8.39807e-11
7.11248e-11
6.00789e-11
5.06154e-11
4.2531e-11
3.56444e-11
2.97947e-11
2.48401e-11
2.06553e-11
1.71308e-11
1.41707e-11
1.16915e-11
9.62104e-12
7.89665e-12
6.4645e-12
5.27835e-12
4.29868e-12
3.49175e-12
2.82896e-12
2.28603e-12
1.84251e-12
1.48119e-12
1.18763e-12
9.49755e-13
7.57525e-13
6.02585e-13
4.7802e-13
3.78119e-13
2.9818e-13
2.3434e-13
1.83431e-13
1.4286e-13
1.10508e-13
8.46358e-14
6.38168e-14
4.68703e-14
3.28086e-14
2.07897e-14
1.00767e-14
0
0
1.25068e-14
2.58039e-14
4.07228e-14
5.81791e-14
7.92186e-14
1.05069e-13
1.37197e-13
1.77378e-13
2.27771e-13
2.91015e-13
3.70335e-13
4.69672e-13
5.93836e-13
7.48681e-13
9.4132e-13
1.18037e-12
1.47624e-12
1.84145e-12
2.29107e-12
2.84309e-12
3.51901e-12
4.34439e-12
5.34952e-12
6.57019e-12
8.04857e-12
9.83412e-12
1.19847e-11
1.45679e-11
1.76619e-11
2.13577e-11
2.57598e-11
3.09887e-11
3.71822e-11
4.44976e-11
5.31137e-11
6.32333e-11
7.50847e-11
8.89249e-11
1.05041e-10
1.23755e-10
1.45421e-10
1.70433e-10
1.99223e-10
2.32267e-10
2.7008e-10
3.13225e-10
3.62306e-10
4.17974e-10
4.80925e-10
5.51896e-10
6.31669e-10
7.21059e-10
8.20921e-10
9.32136e-10
1.05561e-09
1.19226e-09
1.34302e-09
1.50882e-09
1.69057e-09
1.88915e-09
2.10542e-09
2.34018e-09
2.59413e-09
2.86794e-09
3.16214e-09
3.47714e-09
3.81324e-09
4.17056e-09
4.54905e-09
4.9485e-09
5.36847e-09
5.80833e-09
6.2672e-09
6.74397e-09
7.23732e-09
7.74565e-09
8.26712e-09
8.79968e-09
9.34101e-09
9.88858e-09
1.04397e-08
1.09913e-08
1.15405e-08
1.20839e-08
1.26182e-08
1.314e-08
1.36459e-08
1.41322e-08
1.45957e-08
1.5033e-08
1.54407e-08
1.58159e-08
1.61555e-08
1.64569e-08
1.67178e-08
1.69359e-08
1.71096e-08
1.72373e-08
1.7318e-08
1.73511e-08
1.73363e-08
1.72736e-08
1.71637e-08
1.70073e-08
1.68058e-08
1.65609e-08
1.62744e-08
1.59488e-08
1.55866e-08
1.51905e-08
1.47637e-08
1.43093e-08
1.38307e-08
1.33313e-08
1.28145e-08
1.22839e-08
1.17428e-08
1.11948e-08
1.0643e-08
1.00906e-08
9.54065e-09
8.99595e-09
8.45912e-09
7.93257e-09
7.41845e-09
6.9187e-09
6.43502e-09
5.96883e-09
5.52133e-09
5.09349e-09
4.68603e-09
4.29945e-09
3.93407e-09
3.58999e-09
3.26713e-09
2.96527e-09
2.68404e-09
2.42292e-09
2.18131e-09
1.95851e-09
1.75374e-09
1.56617e-09
1.3949e-09
1.23904e-09
1.09765e-09
9.69788e-10
8.54538e-10
7.50976e-10
6.58207e-10
5.75364e-10
5.01611e-10
4.36151e-10
3.78229e-10
3.2713e-10
2.82186e-10
2.42774e-10
2.08316e-10
1.78277e-10
1.52168e-10
1.2954e-10
1.09988e-10
9.31417e-11
7.86688e-11
6.62706e-11
5.56803e-11
4.666e-11
3.89988e-11
3.25105e-11
2.70309e-11
2.24164e-11
1.85412e-11
1.5296e-11
1.25861e-11
1.03293e-11
8.4552e-12
6.90317e-12
5.62143e-12
4.56581e-12
3.69881e-12
2.98869e-12
2.40865e-12
1.93614e-12
1.55228e-12
1.24127e-12
9.89959e-13
7.87415e-13
6.24594e-13
4.94023e-13
3.89552e-13
3.06126e-13
2.39605e-13
1.86598e-13
1.44331e-13
1.10534e-13
8.33398e-14
6.12061e-14
4.28418e-14
2.71467e-14
1.31576e-14
0
0
1.61618e-14
3.33454e-14
5.2626e-14
7.51876e-14
1.02383e-13
1.35799e-13
1.77335e-13
2.29286e-13
2.94446e-13
3.7623e-13
4.78813e-13
6.07294e-13
7.67898e-13
9.68207e-13
1.21743e-12
1.52672e-12
1.90956e-12
2.38218e-12
2.96407e-12
3.67857e-12
4.55352e-12
5.62204e-12
6.92339e-12
8.50397e-12
1.04184e-11
1.27309e-11
1.55165e-11
1.88627e-11
2.28711e-11
2.76596e-11
3.33639e-11
4.01402e-11
4.81676e-11
5.76501e-11
6.882e-11
8.19404e-11
9.73081e-11
1.15257e-10
1.3616e-10
1.60434e-10
1.88541e-10
2.20993e-10
2.58353e-10
3.01236e-10
3.50315e-10
4.06321e-10
4.7004e-10
5.42321e-10
6.24067e-10
7.16241e-10
8.19857e-10
9.35981e-10
1.06572e-09
1.21023e-09
1.37069e-09
1.5483e-09
1.74427e-09
1.95981e-09
2.19612e-09
2.45435e-09
2.73561e-09
3.04094e-09
3.37129e-09
3.72751e-09
4.11029e-09
4.5202e-09
4.9576e-09
5.42268e-09
5.91537e-09
6.4354e-09
6.98221e-09
7.55496e-09
8.15254e-09
8.7735e-09
9.41611e-09
1.00783e-08
1.07577e-08
1.14516e-08
1.21569e-08
1.28705e-08
1.35888e-08
1.43078e-08
1.50236e-08
1.5732e-08
1.64287e-08
1.7109e-08
1.77686e-08
1.84029e-08
1.90073e-08
1.95776e-08
2.01094e-08
2.05988e-08
2.10419e-08
2.14351e-08
2.17755e-08
2.20602e-08
2.22869e-08
2.24536e-08
2.25592e-08
2.26025e-08
2.25834e-08
2.25018e-08
2.23586e-08
2.21548e-08
2.18922e-08
2.15729e-08
2.11995e-08
2.0775e-08
2.03027e-08
1.97864e-08
1.92299e-08
1.86375e-08
1.80135e-08
1.73624e-08
1.66887e-08
1.59969e-08
1.52916e-08
1.45772e-08
1.3858e-08
1.3138e-08
1.24212e-08
1.17113e-08
1.10118e-08
1.03256e-08
9.65574e-09
9.00463e-09
8.37449e-09
7.7672e-09
7.18431e-09
6.62706e-09
6.09641e-09
5.59301e-09
5.11725e-09
4.66927e-09
4.24897e-09
3.85604e-09
3.48999e-09
3.15016e-09
2.83576e-09
2.54587e-09
2.27946e-09
2.03545e-09
1.81268e-09
1.60997e-09
1.4261e-09
1.25985e-09
1.11001e-09
9.75387e-10
8.54806e-10
7.47139e-10
6.51297e-10
5.66243e-10
4.90991e-10
4.24613e-10
3.66237e-10
3.15052e-10
2.70305e-10
2.31302e-10
1.97406e-10
1.68034e-10
1.42657e-10
1.20794e-10
1.02013e-10
8.5927e-11
7.21879e-11
6.0487e-11
5.05504e-11
4.21358e-11
3.50304e-11
2.90473e-11
2.40234e-11
1.98167e-11
1.63042e-11
1.33794e-11
1.09509e-11
8.93988e-12
7.27928e-12
5.91178e-12
4.78876e-12
3.86903e-12
3.11784e-12
2.50599e-12
2.00897e-12
1.60632e-12
1.28099e-12
1.01882e-12
8.08077e-13
6.39097e-13
5.03906e-13
3.9596e-13
3.09894e-13
2.4132e-13
1.86645e-13
1.4293e-13
1.07759e-13
7.91362e-14
5.53898e-14
3.50966e-14
1.70106e-14
0
0
2.07427e-14
4.27976e-14
6.75456e-14
9.65075e-14
1.31421e-13
1.74325e-13
2.27658e-13
2.94372e-13
3.78056e-13
4.83099e-13
6.14868e-13
7.79919e-13
9.86257e-13
1.24363e-12
1.56388e-12
1.96135e-12
2.4534e-12
3.06089e-12
3.80891e-12
4.72749e-12
5.85247e-12
7.22648e-12
8.90006e-12
1.0933e-11
1.33955e-11
1.63704e-11
1.99543e-11
2.426e-11
2.94184e-11
3.55813e-11
4.29238e-11
5.16472e-11
6.19823e-11
7.41923e-11
8.85769e-11
1.05475e-10
1.25271e-10
1.48393e-10
1.75326e-10
2.06605e-10
2.42829e-10
2.84657e-10
3.32816e-10
3.88103e-10
4.51387e-10
5.23611e-10
6.05794e-10
6.9903e-10
8.04491e-10
9.23419e-10
1.05713e-09
1.207e-09
1.37447e-09
1.56102e-09
1.76819e-09
1.99754e-09
2.25062e-09
2.52902e-09
2.83428e-09
3.16789e-09
3.53132e-09
3.92589e-09
4.35286e-09
4.81331e-09
5.30816e-09
5.83814e-09
6.40375e-09
7.0052e-09
7.64246e-09
8.31514e-09
9.02254e-09
9.7636e-09
1.05369e-08
1.13405e-08
1.21722e-08
1.30293e-08
1.39088e-08
1.48072e-08
1.57205e-08
1.66446e-08
1.75747e-08
1.8506e-08
1.94333e-08
2.03509e-08
2.12534e-08
2.21349e-08
2.29896e-08
2.38115e-08
2.45949e-08
2.5334e-08
2.60233e-08
2.66577e-08
2.72321e-08
2.7742e-08
2.81833e-08
2.85526e-08
2.88466e-08
2.9063e-08
2.92e-08
2.92565e-08
2.92319e-08
2.91265e-08
2.89411e-08
2.86773e-08
2.83372e-08
2.79236e-08
2.74399e-08
2.68899e-08
2.6278e-08
2.56091e-08
2.48881e-08
2.41207e-08
2.33122e-08
2.24687e-08
2.15959e-08
2.06998e-08
1.97862e-08
1.88608e-08
1.79291e-08
1.69967e-08
1.60684e-08
1.51491e-08
1.42432e-08
1.33547e-08
1.24874e-08
1.16445e-08
1.08287e-08
1.00426e-08
9.28821e-09
8.56704e-09
7.88035e-09
7.22899e-09
6.61346e-09
6.03392e-09
5.49025e-09
4.98204e-09
4.50865e-09
4.06922e-09
3.66272e-09
3.28794e-09
2.94357e-09
2.62819e-09
2.3403e-09
2.07835e-09
1.84079e-09
1.62602e-09
1.43247e-09
1.2586e-09
1.10288e-09
9.63857e-10
8.4012e-10
7.30324e-10
6.33194e-10
5.47529e-10
4.722e-10
4.0616e-10
3.48433e-10
2.98123e-10
2.54406e-10
2.16529e-10
1.83806e-10
1.55619e-10
1.3141e-10
1.10676e-10
9.29692e-11
7.78913e-11
6.50884e-11
5.42479e-11
4.50951e-11
3.7389e-11
3.0919e-11
2.55022e-11
2.09798e-11
1.72145e-11
1.40884e-11
1.15e-11
9.36293e-12
7.60325e-12
6.1583e-12
4.97505e-12
4.00874e-12
3.22175e-12
2.58253e-12
2.06474e-12
1.64641e-12
1.30933e-12
1.03841e-12
8.21192e-13
6.47427e-13
5.08694e-13
3.98093e-13
3.09977e-13
2.3973e-13
1.83569e-13
1.3839e-13
1.01625e-13
7.11273e-14
4.50669e-14
2.18425e-14
0
0
2.64879e-14
5.46526e-14
8.62587e-14
1.2325e-13
1.67846e-13
2.22655e-13
2.90794e-13
3.76035e-13
4.82971e-13
6.17214e-13
7.85627e-13
9.96598e-13
1.26037e-12
1.58941e-12
1.99888e-12
2.50714e-12
3.13638e-12
3.91335e-12
4.87016e-12
6.04526e-12
7.48454e-12
9.24261e-12
1.13842e-11
1.39859e-11
1.71379e-11
2.09461e-11
2.55344e-11
3.10473e-11
3.76529e-11
4.55457e-11
5.49504e-11
6.61253e-11
7.93663e-11
9.50115e-11
1.13445e-10
1.35103e-10
1.60477e-10
1.90121e-10
2.24652e-10
2.64762e-10
3.11219e-10
3.64871e-10
4.26651e-10
4.97585e-10
5.7879e-10
6.7148e-10
7.76964e-10
8.96653e-10
1.03205e-09
1.18476e-09
1.35648e-09
1.54898e-09
1.7641e-09
2.00379e-09
2.26999e-09
2.56472e-09
2.89002e-09
3.24789e-09
3.64034e-09
4.06932e-09
4.53668e-09
5.04417e-09
5.5934e-09
6.18577e-09
6.8225e-09
7.5045e-09
8.23244e-09
9.00662e-09
9.82698e-09
1.06931e-08
1.1604e-08
1.25583e-08
1.35542e-08
1.45894e-08
1.56608e-08
1.67652e-08
1.78985e-08
1.90562e-08
2.02333e-08
2.14243e-08
2.26233e-08
2.3824e-08
2.50195e-08
2.62028e-08
2.73666e-08
2.85034e-08
2.96057e-08
3.06659e-08
3.16765e-08
3.26301e-08
3.35195e-08
3.4338e-08
3.50792e-08
3.57373e-08
3.6307e-08
3.67837e-08
3.71634e-08
3.7443e-08
3.76201e-08
3.76933e-08
3.7662e-08
3.75263e-08
3.72875e-08
3.69474e-08
3.65089e-08
3.59757e-08
3.53519e-08
3.46427e-08
3.38537e-08
3.2991e-08
3.20613e-08
3.10715e-08
3.0029e-08
2.89413e-08
2.78158e-08
2.66603e-08
2.54823e-08
2.42891e-08
2.3088e-08
2.18858e-08
2.06892e-08
1.95042e-08
1.83365e-08
1.71915e-08
1.60737e-08
1.49875e-08
1.39364e-08
1.29236e-08
1.19517e-08
1.10227e-08
1.01383e-08
9.29939e-09
8.50674e-09
7.76052e-09
7.06056e-09
6.40634e-09
5.797e-09
5.23145e-09
4.70834e-09
4.22611e-09
3.78306e-09
3.37735e-09
3.00706e-09
2.67018e-09
2.3647e-09
2.08856e-09
1.83974e-09
1.61624e-09
1.41611e-09
1.23745e-09
1.07847e-09
9.37409e-10
8.12641e-10
7.02614e-10
6.05877e-10
5.21079e-10
4.46966e-10
3.82383e-10
3.26271e-10
2.77661e-10
2.35673e-10
1.99509e-10
1.68451e-10
1.41856e-10
1.19147e-10
9.98125e-11
8.33968e-11
6.94992e-11
5.77667e-11
4.78898e-11
3.95983e-11
3.26574e-11
2.68631e-11
2.20396e-11
1.80353e-11
1.47203e-11
1.19835e-11
9.73027e-12
7.88029e-12
6.36553e-12
5.12864e-12
4.12138e-12
3.30335e-12
2.64077e-12
2.10554e-12
1.6743e-12
1.32774e-12
1.04991e-12
8.27671e-13
6.50259e-13
5.08836e-13
3.96177e-13
3.06371e-13
2.34582e-13
1.76836e-13
1.29851e-13
9.08782e-14
5.75792e-14
2.79062e-14
0
0
3.36888e-14
6.95117e-14
1.09714e-13
1.56771e-13
2.13508e-13
2.83246e-13
3.69953e-13
4.78433e-13
6.14536e-13
7.8541e-13
9.998e-13
1.26839e-12
1.60424e-12
2.02324e-12
2.5447e-12
3.19204e-12
3.99356e-12
4.98336e-12
6.20238e-12
7.69968e-12
9.5338e-12
1.17744e-11
1.45042e-11
1.78208e-11
2.18393e-11
2.6695e-11
3.2546e-11
3.95771e-11
4.80027e-11
5.80716e-11
7.00705e-11
8.43298e-11
1.01228e-10
1.21196e-10
1.44727e-10
1.72378e-10
2.04776e-10
2.42631e-10
2.86734e-10
3.3797e-10
3.9732e-10
4.65872e-10
5.44821e-10
6.3548e-10
7.39281e-10
8.57778e-10
9.92652e-10
1.14571e-09
1.31888e-09
1.51423e-09
1.73391e-09
1.98021e-09
2.25552e-09
2.56228e-09
2.90304e-09
3.28038e-09
3.6969e-09
4.1552e-09
4.65786e-09
5.20737e-09
5.80614e-09
6.45641e-09
7.16026e-09
7.9195e-09
8.7357e-09
9.61006e-09
1.05434e-08
1.15362e-08
1.25884e-08
1.36993e-08
1.48679e-08
1.60923e-08
1.73703e-08
1.86988e-08
2.0074e-08
2.14916e-08
2.29465e-08
2.44329e-08
2.59444e-08
2.7474e-08
2.90139e-08
3.05561e-08
3.20918e-08
3.36121e-08
3.51074e-08
3.65682e-08
3.79848e-08
3.93474e-08
4.06463e-08
4.1872e-08
4.30154e-08
4.40677e-08
4.50208e-08
4.58671e-08
4.65998e-08
4.7213e-08
4.77015e-08
4.80613e-08
4.82895e-08
4.83841e-08
4.83443e-08
4.81704e-08
4.78638e-08
4.74271e-08
4.68639e-08
4.61789e-08
4.53775e-08
4.44663e-08
4.34525e-08
4.23441e-08
4.11495e-08
3.98777e-08
3.85383e-08
3.71406e-08
3.56947e-08
3.42101e-08
3.26967e-08
3.11639e-08
2.9621e-08
2.80769e-08
2.65399e-08
2.5018e-08
2.35185e-08
2.20482e-08
2.0613e-08
1.92184e-08
1.78691e-08
1.6569e-08
1.53215e-08
1.41293e-08
1.29943e-08
1.19179e-08
1.0901e-08
9.94372e-09
9.04589e-09
8.20683e-09
7.42543e-09
6.70027e-09
6.0296e-09
5.41143e-09
4.84356e-09
4.32362e-09
3.84912e-09
3.41751e-09
3.02616e-09
2.67246e-09
2.35379e-09
2.06759e-09
1.81135e-09
1.58264e-09
1.37913e-09
1.1986e-09
1.03894e-09
8.98162e-10
7.74406e-10
6.65938e-10
5.71151e-10
4.88565e-10
4.1682e-10
3.54676e-10
3.01004e-10
2.54784e-10
2.15096e-10
1.81115e-10
1.52103e-10
1.27405e-10
1.06439e-10
8.86907e-11
7.37097e-11
6.10998e-11
5.05154e-11
4.16561e-11
3.42613e-11
2.81062e-11
2.29972e-11
1.87681e-11
1.52771e-11
1.24032e-11
1.0044e-11
8.11247e-12
6.53545e-12
5.25136e-12
4.20862e-12
3.36413e-12
2.68202e-12
2.13251e-12
1.69095e-12
1.33698e-12
1.05389e-12
8.27912e-13
6.47796e-13
5.04329e-13
3.89976e-13
2.98575e-13
2.25062e-13
1.65253e-13
1.1565e-13
7.32714e-14
3.55108e-14
0
0
4.27009e-14
8.81086e-14
1.39072e-13
1.98729e-13
2.70666e-13
3.59095e-13
4.69055e-13
6.0664e-13
7.79276e-13
9.96041e-13
1.26803e-12
1.60883e-12
2.035e-12
2.56674e-12
3.22858e-12
4.05028e-12
5.06779e-12
6.32445e-12
7.87231e-12
9.77373e-12
1.21032e-11
1.49492e-11
1.84169e-11
2.26306e-11
2.77367e-11
3.39073e-11
4.13437e-11
5.0281e-11
6.09923e-11
7.37942e-11
8.90521e-11
1.07187e-10
1.2868e-10
1.54082e-10
1.8402e-10
2.19203e-10
2.60435e-10
3.08617e-10
3.64759e-10
4.2999e-10
5.05563e-10
5.92865e-10
6.93423e-10
8.08912e-10
9.41161e-10
1.09216e-09
1.26405e-09
1.45914e-09
1.6799e-09
1.92897e-09
2.2091e-09
2.52324e-09
2.8744e-09
3.26576e-09
3.70056e-09
4.18209e-09
4.71371e-09
5.29873e-09
5.94047e-09
6.64214e-09
7.4068e-09
8.23737e-09
9.13648e-09
1.01065e-08
1.11494e-08
1.22668e-08
1.34598e-08
1.4729e-08
1.60741e-08
1.74946e-08
1.8989e-08
2.05551e-08
2.21898e-08
2.38894e-08
2.56489e-08
2.74629e-08
2.93249e-08
3.12274e-08
3.31622e-08
3.51204e-08
3.70921e-08
3.90668e-08
4.10335e-08
4.29805e-08
4.48958e-08
4.67671e-08
4.85819e-08
5.03277e-08
5.1992e-08
5.35628e-08
5.50281e-08
5.63769e-08
5.75987e-08
5.86836e-08
5.96231e-08
6.04093e-08
6.1036e-08
6.14977e-08
6.17908e-08
6.19126e-08
6.18622e-08
6.164e-08
6.12477e-08
6.06887e-08
5.99676e-08
5.90903e-08
5.80639e-08
5.68968e-08
5.55982e-08
5.41784e-08
5.26482e-08
5.10192e-08
4.93035e-08
4.75133e-08
4.56613e-08
4.37599e-08
4.18217e-08
3.98588e-08
3.7883e-08
3.59058e-08
3.39378e-08
3.19894e-08
3.00697e-08
2.81875e-08
2.63505e-08
2.45656e-08
2.28388e-08
2.11752e-08
1.95791e-08
1.80538e-08
1.66019e-08
1.52251e-08
1.39245e-08
1.27004e-08
1.15524e-08
1.04797e-08
9.48081e-09
8.55395e-09
7.69684e-09
6.90693e-09
6.18139e-09
5.51717e-09
4.91109e-09
4.35986e-09
3.86013e-09
3.40852e-09
3.00171e-09
2.6364e-09
2.30937e-09
2.01752e-09
1.75787e-09
1.52757e-09
1.32392e-09
1.14438e-09
9.86569e-10
8.48275e-10
7.27443e-10
6.22178e-10
5.30745e-10
4.51558e-10
3.83177e-10
3.24298e-10
2.73748e-10
2.30472e-10
1.9353e-10
1.62085e-10
1.35395e-10
1.12805e-10
9.37398e-11
7.76939e-11
6.42273e-11
5.2957e-11
4.35511e-11
3.57229e-11
2.9226e-11
2.38487e-11
1.94105e-11
1.57574e-11
1.27587e-11
1.03041e-11
8.30012e-12
6.66861e-12
5.34389e-12
4.27117e-12
3.40481e-12
2.70694e-12
2.14622e-12
1.69679e-12
1.33739e-12
1.05053e-12
8.21907e-13
6.39825e-13
4.9471e-13
3.78733e-13
2.85465e-13
2.09592e-13
1.46672e-13
9.29227e-14
4.50337e-14
0
0
5.39577e-14
1.11338e-13
1.75744e-13
2.51144e-13
3.42074e-13
4.53862e-13
5.92882e-13
7.66848e-13
9.85156e-13
1.25929e-12
1.60332e-12
2.0344e-12
2.57354e-12
3.2463e-12
4.08377e-12
5.12362e-12
6.41141e-12
8.00205e-12
9.9615e-12
1.23688e-11
1.53183e-11
1.89224e-11
2.33143e-11
2.86516e-11
3.51201e-11
4.2938e-11
5.2361e-11
6.36872e-11
7.72633e-11
9.34913e-11
1.12835e-10
1.35829e-10
1.63085e-10
1.95303e-10
2.33279e-10
2.77915e-10
3.30231e-10
3.91375e-10
4.62631e-10
5.45434e-10
6.4138e-10
7.52232e-10
8.79935e-10
1.02662e-09
1.19462e-09
1.38646e-09
1.60488e-09
1.85282e-09
2.13343e-09
2.45006e-09
2.80625e-09
3.20572e-09
3.65236e-09
4.15019e-09
4.70335e-09
5.31608e-09
5.99263e-09
6.73726e-09
7.55421e-09
8.44757e-09
9.4213e-09
1.04791e-08
1.16244e-08
1.28601e-08
1.4189e-08
1.56129e-08
1.71334e-08
1.87511e-08
2.0466e-08
2.22772e-08
2.41829e-08
2.61802e-08
2.82654e-08
3.04335e-08
3.26785e-08
3.49932e-08
3.73694e-08
3.97976e-08
4.22674e-08
4.47672e-08
4.72846e-08
4.98062e-08