# vtk DataFile Version 3.0
2D field
ASCII
DATASET STRUCTURED_POINTS
DIMENSIONS 201 201 1
ORIGIN 0 0 0
SPACING 0.005 0.005 1
POINT_DATA 40401
SCALARS temperature double 1
LOOKUP_TABLE default
0
0
0
0
0
0
0
0
0
0
0
0
0
0
0
0
0
0
0
0
0
0
0
0
0
0
0
0
0
0
0
0
0
0
0
0
0
0
0
0
0
0
0
0
0
0
0
0
0
0
0
0
0
0
0
0
0
0
0
0
0
0
0
0
0
0
0
0
0
0
0
0
0
0
0
0
0
0
0
0
0
0
0
0
0
0
0
0
0
0
0
0
0
0
0
0
0
0
0
0
0
0
0
0
0
0
0
0
0
0
0
0
0
0
0
0
0
0
0
0
0
0
0
0
0
0
0
0
0
0
0
0
0
0
0
0
0
0
0
0
0
0
0
0
0
0
0
0
0
0
0
0
0
0
0
0
0
0
0
0
0
0
0
0
0
0
0
0
0
0
0
0
0
0
0
0
0
0
0
0
0
0
0
0
0
0
0
0
0
0
0
0
0
0
0
0
0
0
0
0
0
0
2.75774e-20
5.82852e-20
9.61323e-20
1.45929e-19
2.13827e-19
3.07978e-19
4.39371e-19
6.22932e-19
8.78977e-19
1.23513e-18
1.72887e-18
2.41087e-18
3.34937e-18
4.63598e-18
6.39305e-18
8.78344e-18
1.20229e-17
1.63963e-17
2.22777e-17
3.01565e-17
4.06706e-17
5.4647e-17
7.31542e-17
9.75656e-17
1.2964e-16
1.7162e-16
2.26349e-16
2.97422e-16
3.89359e-16
5.07819e-16
6.59857e-16
8.54223e-16
1.10172e-15
1.41565e-15
1.81224e-15
2.31129e-15
2.93678e-15
3.71762e-15
4.68853e-15
5.89092e-15
7.37405e-15
9.19611e-15
1.14255e-14
1.41424e-14
1.74398e-14
2.14257e-14
2.6224e-14
3.19768e-14
3.88457e-14
4.70133e-14
5.66851e-14
6.80905e-14
8.14842e-14
9.71469e-14
1.15386e-13
1.36535e-13
1.60954e-13
1.89029e-13
2.21166e-13
2.57796e-13
2.99363e-13
3.46326e-13
3.9915e-13
4.58302e-13
5.24241e-13
5.97411e-13
6.78232e-13
7.67089e-13
8.64322e-13
9.70212e-13
1.08497e-12
1.20874e-12
1.34155e-12
1.48334e-12
1.63393e-12
1.79303e-12
1.9602e-12
2.13488e-12
2.31635e-12
2.50376e-12
2.69613e-12
2.89232e-12
3.09108e-12
3.29102e-12
3.49067e-12
3.68845e-12
3.88272e-12
4.07179e-12
4.25394e-12
4.42745e-12
4.59062e-12
4.74183e-12
4.87952e-12
5.00223e-12
5.10865e-12
5.19761e-12
5.26815e-12
5.31946e-12
5.35097e-12
5.36232e-12
5.35339e-12
5.32427e-12
5.2753e-12
5.20703e-12
5.12021e-12
5.01581e-12
4.89497e-12
4.75899e-12
4.60931e-12
4.44746e-12
4.27507e-12
4.09385e-12
3.90549e-12
3.71173e-12
3.51425e-12
3.31471e-12
3.1147e-12
2.9157e-12
2.71911e-12
2.52619e-12
2.33811e-12
2.15586e-12
1.98032e-12
1.8122e-12
1.6521e-12
1.50046e-12
1.3576e-12
1.22371e-12
1.09887e-12
9.83039e-13
8.76106e-13
7.77862e-13
6.88033e-13
6.06286e-13
5.32239e-13
4.65476e-13
4.05556e-13
3.52019e-13
3.044e-13
2.62233e-13
2.25057e-13
1.92425e-13
1.63906e-13
1.3909e-13
1.17587e-13
9.90352e-14
8.30972e-14
6.94624e-14
5.7847e-14
4.79931e-14
3.96685e-14
3.26649e-14
2.6797e-14
2.19008e-14
1.78322e-14
1.44651e-14
1.16898e-14
9.41166e-15
7.54914e-15
6.03256e-15
4.80263e-15
3.80917e-15
3.00993e-15
2.36951e-15
1.85838e-15
1.45207e-15
1.13036e-15
8.7665e-16
6.77348e-16
5.21406e-16
3.99871e-16
3.05523e-16
2.32566e-16
1.76373e-16
1.33259e-16
1.00311e-16
7.52277e-17
5.62072e-17
4.18399e-17
3.10294e-17
2.29267e-17
1.6877e-17
1.23776e-17
9.04406e-18
6.58382e-18
4.77507e-18
3.45039e-18
2.48395e-18
1.78153e-18
1.27293e-18
9.06001e-19
6.42171e-19
4.53004e-19
3.17582e-19
2.20535e-19
1.50541e-19
9.92018e-20
6.01723e-20
2.84873e-20
0
0
5.82811e-20
1.23276e-19
2.03389e-19
3.08776e-19
4.52445e-19
6.51631e-19
9.29569e-19
1.31782e-18
1.85931e-18
2.61245e-18
3.65643e-18
5.09832e-18
7.08234e-18
9.80196e-18
1.35157e-17
1.85675e-17
2.5413e-17
3.46537e-17
4.70794e-17
6.37236e-17
8.59324e-17
1.15452e-16
1.54536e-16
2.06084e-16
2.73807e-16
3.62434e-16
4.77967e-16
6.27985e-16
8.22022e-16
1.07201e-15
1.39283e-15
1.80292e-15
2.32506e-15
2.98726e-15
3.82377e-15
4.87628e-15
6.19531e-15
7.84179e-15
9.88882e-15
1.24237e-14
1.555e-14
1.93905e-14
2.4089e-14
2.98143e-14
3.67624e-14
4.51603e-14
5.5269e-14
6.73874e-14
8.18554e-14
9.90574e-14
1.19425e-13
1.43442e-13
1.71643e-13
2.04619e-13
2.43015e-13
2.87534e-13
3.38932e-13
3.98018e-13
4.6565e-13
5.42729e-13
6.30191e-13
7.28999e-13
8.4013e-13
9.64564e-13
1.10326e-12
1.25716e-12
1.42714e-12
1.61401e-12
1.81848e-12
2.04114e-12
2.28243e-12
2.54264e-12
2.82185e-12
3.11993e-12
3.43649e-12
3.77091e-12
4.12227e-12
4.48939e-12
4.87078e-12
5.26463e-12
5.66888e-12
6.08113e-12
6.49876e-12
6.91887e-12
7.33835e-12
7.75388e-12
8.16202e-12
8.55922e-12
8.94186e-12
9.30634e-12
9.6491e-12
9.96672e-12
1.02559e-11
1.05136e-11
1.07372e-11
1.0924e-11
1.10721e-11
1.11799e-11
1.1246e-11
1.12698e-11
1.1251e-11
1.11898e-11
1.10869e-11
1.09434e-11
1.0761e-11
1.05417e-11
1.02879e-11
1.00022e-11
9.68771e-12
9.34769e-12
8.98554e-12
8.6048e-12
8.20908e-12
7.80199e-12
7.38709e-12
6.96785e-12
6.54759e-12
6.12946e-12
5.71638e-12
5.31101e-12
4.91578e-12
4.53279e-12
4.16387e-12
3.81055e-12
3.47406e-12
3.15535e-12
2.85507e-12
2.57362e-12
2.31118e-12
2.06768e-12
1.84287e-12
1.63631e-12
1.44743e-12
1.27554e-12
1.11982e-12
9.79419e-13
8.53396e-13
7.40791e-13
6.40625e-13
5.51921e-13
4.73711e-13
4.05056e-13
3.4505e-13
2.92829e-13
2.47578e-13
2.08534e-13
1.74988e-13
1.46288e-13
1.21836e-13
1.0109e-13
8.35628e-14
6.88154e-14
5.64583e-14
4.61467e-14
3.75772e-14
3.04845e-14
2.4638e-14
1.98382e-14
1.59138e-14
1.2718e-14
1.0126e-14
8.03211e-15
6.34742e-15
4.99735e-15
3.91975e-15
3.06305e-15
2.38466e-15
1.84959e-15
1.42924e-15
1.1003e-15
8.43913e-16
6.44857e-16
4.90919e-16
3.72338e-16
2.8135e-16
2.11806e-16
1.58859e-16
1.18705e-16
8.83714e-17
6.55448e-17
4.84339e-17
3.56571e-17
2.61534e-17
1.91117e-17
1.39141e-17
1.00925e-17
7.29341e-18
5.25105e-18
3.76652e-18
2.69149e-18
1.91583e-18
1.35806e-18
9.58091e-19
6.71728e-19
4.66482e-19
3.18429e-19
2.0981e-19
1.27218e-19
6.01767e-20
0
0
9.61156e-20
2.03369e-19
3.35583e-19
5.09492e-19
7.4655e-19
1.07519e-18
1.53372e-18
2.17421e-18
3.06745e-18
4.30975e-18
6.0317e-18
8.40984e-18
1.1682e-17
1.6167e-17
2.22911e-17
3.06214e-17
4.19089e-17
5.71449e-17
7.76312e-17
1.05071e-16
1.41683e-16
1.90343e-16
2.54768e-16
3.39732e-16
4.51351e-16
5.97415e-16
7.8781e-16
1.03502e-15
1.35476e-15
1.76667e-15
2.29525e-15
2.97089e-15
3.83109e-15
4.92197e-15
6.29991e-15
8.03357e-15
1.02061e-14
1.29179e-14
1.62891e-14
2.04636e-14
2.56119e-14
3.19357e-14
3.96722e-14
4.90988e-14
6.05381e-14
7.43636e-14
9.10048e-14
1.10953e-13
1.34769e-13
1.63083e-13
1.96607e-13
2.36134e-13
2.82546e-13
3.36813e-13
3.99998e-13
4.73254e-13
5.57827e-13
6.55045e-13
7.66321e-13
8.93134e-13
1.03702e-12
1.19957e-12
1.38239e-12
1.58707e-12
1.81522e-12
2.06836e-12
2.34794e-12
2.65529e-12
2.99156e-12
3.35775e-12
3.75457e-12
4.18248e-12
4.64162e-12
5.13177e-12
5.6523e-12
6.20218e-12
6.77991e-12
7.38353e-12
8.01058e-12
8.65811e-12
9.32271e-12
1.00005e-11
1.06871e-11
1.13777e-11
1.20673e-11
1.27504e-11
1.34213e-11
1.40742e-11
1.47032e-11
1.53023e-11
1.58657e-11
1.63877e-11
1.68631e-11
1.72867e-11
1.76541e-11
1.79611e-11
1.82046e-11
1.83816e-11
1.84903e-11
1.85294e-11
1.84985e-11
1.83978e-11
1.82287e-11
1.79928e-11
1.7693e-11
1.73324e-11
1.69151e-11
1.64455e-11
1.59286e-11
1.53697e-11
1.47744e-11
1.41485e-11
1.3498e-11
1.28288e-11
1.21467e-11
1.14575e-11
1.07667e-11
1.00793e-11
9.40015e-12
8.73373e-12
8.08394e-12
7.45427e-12
6.84773e-12
6.26682e-12
5.71357e-12
5.18953e-12
4.69578e-12
4.233e-12
3.80145e-12
3.40104e-12
3.03134e-12
2.69165e-12
2.38104e-12
2.09833e-12
1.84224e-12
1.61131e-12
1.40403e-12
1.21881e-12
1.05405e-12
9.08134e-13
7.79477e-13
6.66533e-13
5.67813e-13
4.81898e-13
4.07447e-13
3.43205e-13
2.88008e-13
2.40781e-13
2.00543e-13
1.66403e-13
1.37557e-13
1.13286e-13
9.29477e-14
7.59751e-14
6.18693e-14
5.01938e-14
4.05693e-14
3.26675e-14
2.62065e-14
2.09447e-14
1.66769e-14
1.3229e-14
1.04548e-14
8.23156e-15
6.45688e-15
5.04592e-15
3.92857e-15
3.04724e-15
2.35482e-15
1.81295e-15
1.39058e-15
1.06264e-15
8.0901e-16
6.13627e-16
4.63699e-16
3.49101e-16
2.61847e-16
1.95672e-16
1.45677e-16
1.08054e-16
7.985e-17
5.87888e-17
4.31221e-17
3.15132e-17
2.29442e-17
1.66433e-17
1.2028e-17
8.66025e-18
6.21221e-18
4.43936e-18
3.16014e-18
2.24021e-18
1.58051e-18
1.10816e-18
7.69582e-19
5.25328e-19
3.46115e-19
2.09832e-19
9.92196e-20
0
0
1.45885e-19
3.08706e-19
5.09428e-19
7.73445e-19
1.13332e-18
1.6322e-18
2.32826e-18
3.3005e-18
4.6564e-18
6.54212e-18
9.15587e-18
1.27656e-17
1.77322e-17
2.45397e-17
3.38349e-17
4.64784e-17
6.36101e-17
8.67341e-17
1.17826e-16
1.59471e-16
2.15035e-16
2.88883e-16
3.86654e-16
5.15594e-16
6.8498e-16
9.06635e-16
1.19556e-15
1.5707e-15
2.05588e-15
2.68092e-15
3.48298e-15
4.50817e-15
5.8134e-15
7.4686e-15
9.55933e-15
1.21898e-14
1.5486e-14
1.96003e-14
2.47152e-14
3.10485e-14
3.88591e-14
4.84531e-14
6.019e-14
7.44906e-14
9.18445e-14
1.12818e-13
1.38062e-13
1.68324e-13
2.0445e-13
2.474e-13
2.98252e-13
3.5821e-13
4.2861e-13
5.10923e-13
6.06761e-13
7.17874e-13
8.4615e-13
9.93605e-13
1.16238e-12
1.35471e-12
1.57295e-12
1.81947e-12
2.09674e-12
2.40717e-12
2.75318e-12
3.13708e-12
3.56108e-12
4.02717e-12
4.53714e-12
5.09246e-12
5.69423e-12
6.34315e-12
7.03941e-12
7.78269e-12
8.57203e-12
9.40587e-12
1.02819e-11
1.11972e-11
1.21481e-11
1.313e-11
1.41377e-11
1.51654e-11
1.62065e-11
1.72537e-11
1.82993e-11
1.93351e-11
2.03524e-11
2.13424e-11
2.2296e-11
2.32044e-11
2.40587e-11
2.48503e-11
2.5571e-11
2.62133e-11
2.67703e-11
2.72359e-11
2.76049e-11
2.78734e-11
2.80382e-11
2.80974e-11
2.80505e-11
2.78979e-11
2.76414e-11
2.72838e-11
2.68291e-11
2.62825e-11
2.56497e-11
2.49377e-11
2.41539e-11
2.33064e-11
2.24037e-11
2.14547e-11
2.04684e-11
1.94537e-11
1.84195e-11
1.73745e-11
1.63269e-11
1.52846e-11
1.42549e-11
1.32443e-11
1.2259e-11
1.13043e-11
1.03845e-11
9.50365e-12
8.66471e-12
7.87006e-12
7.12134e-12
6.41957e-12
5.76516e-12
5.15795e-12
4.59732e-12
4.08219e-12
3.61114e-12
3.18242e-12
2.79405e-12
2.44384e-12
2.12948e-12
1.84859e-12
1.59871e-12
1.37741e-12
1.18229e-12
1.01099e-12
8.61262e-13
7.30956e-13
6.18035e-13
5.20597e-13
4.36875e-13
3.65242e-13
3.04209e-13
2.52425e-13
2.08671e-13
1.71854e-13
1.41003e-13
1.15257e-13
9.38596e-14
7.61484e-14
6.1548e-14
4.9561e-14
3.97594e-14
3.17769e-14
2.53022e-14
2.00715e-14
1.58626e-14
1.24896e-14
9.79704e-15
7.65631e-15
5.96103e-15
4.62381e-15
3.57321e-15
2.75103e-15
2.11014e-15
1.61253e-15
1.22767e-15
9.31195e-16
7.03688e-16
5.29787e-16
3.9738e-16
2.96957e-16
2.21088e-16
1.63991e-16
1.21189e-16
8.92253e-17
6.54487e-17
4.783e-17
3.48246e-17
2.52616e-17
1.82566e-17
1.31452e-17
9.4295e-18
6.7386e-18
4.79692e-18
3.40057e-18
2.3992e-18
1.68219e-18
1.16824e-18
7.97456e-19
5.25396e-19
3.18503e-19
1.50588e-19
0
0
2.13731e-19
4.52277e-19
7.46351e-19
1.13316e-18
1.66041e-18
2.39132e-18
3.41115e-18
4.83562e-18
6.82224e-18
9.58515e-18
1.34148e-17
1.87038e-17
2.59809e-17
3.59556e-17
4.95754e-17
6.81014e-17
9.32042e-17
1.27088e-16
1.72647e-16
2.3367e-16
3.1509e-16
4.23303e-16
5.66572e-16
7.55518e-16
1.00373e-15
1.32855e-15
1.75194e-15
2.30168e-15
3.01268e-15
3.92865e-15
5.10404e-15
6.60643e-15
8.51922e-15
1.09449e-14
1.40089e-14
1.78639e-14
2.26947e-14
2.87244e-14
3.62205e-14
4.55024e-14
5.69495e-14
7.10103e-14
8.82119e-14
1.09171e-13
1.34605e-13
1.65345e-13
2.02344e-13
2.46697e-13
2.99645e-13
3.62596e-13
4.37129e-13
5.25009e-13
6.28194e-13
7.48841e-13
8.89312e-13
1.05217e-12
1.24019e-12
1.45632e-12
1.7037e-12
1.98562e-12
2.3055e-12
2.66685e-12
3.07326e-12
3.52828e-12
4.03546e-12
4.59819e-12
5.21968e-12
5.9029e-12
6.65042e-12
7.46442e-12
8.34652e-12
9.29772e-12
1.03183e-11
1.14079e-11
1.25649e-11
1.37872e-11
1.50714e-11
1.64131e-11
1.78069e-11
1.92463e-11
2.07235e-11
2.223e-11
2.37561e-11
2.52912e-11
2.6824e-11
2.83423e-11
2.98336e-11
3.12848e-11
3.26828e-11
3.40144e-11
3.52667e-11
3.64271e-11
3.74836e-11
3.84252e-11
3.92417e-11
3.99242e-11
4.04653e-11
4.08588e-11
4.11004e-11
4.11872e-11
4.11185e-11
4.08948e-11
4.05188e-11
3.99946e-11
3.93281e-11
3.85267e-11
3.75992e-11
3.65554e-11
3.54064e-11
3.41641e-11
3.28409e-11
3.14497e-11
3.00039e-11
2.85164e-11
2.70004e-11
2.54685e-11
2.39329e-11
2.2405e-11
2.08955e-11
1.94142e-11
1.79698e-11
1.65702e-11
1.5222e-11
1.39308e-11
1.2701e-11
1.15361e-11
1.04386e-11
9.40992e-12
8.45064e-12
7.56056e-12
6.73876e-12
5.98367e-12
5.29318e-12
4.66475e-12
4.09546e-12
3.58212e-12
3.12133e-12
2.70959e-12
2.34332e-12
2.01894e-12
1.73293e-12
1.48184e-12
1.26238e-12
1.07138e-12
9.05862e-13
7.63042e-13
6.40328e-13
5.35332e-13
4.45875e-13
3.69973e-13
3.05842e-13
2.5188e-13
2.06662e-13
1.68926e-13
1.37564e-13
1.11605e-13
9.02056e-14
7.26368e-14
5.82711e-14
4.65718e-14
3.70823e-14
2.9416e-14
2.32476e-14
1.8304e-14
1.43579e-14
1.12205e-14
8.73595e-15
6.7762e-15
5.2365e-15
4.03157e-15
3.09234e-15
2.36308e-15
1.79909e-15
1.3646e-15
1.0312e-15
7.76354e-16
5.82319e-16
4.35156e-16
3.23976e-16
2.40306e-16
1.77583e-16
1.30745e-16
9.59033e-17
7.00857e-17
5.10284e-17
3.70153e-17
2.67509e-17
1.9261e-17
1.38165e-17
9.8736e-18
7.02853e-18
4.98253e-18
3.51529e-18
2.46472e-18
1.71167e-18
1.16841e-18
7.69792e-19
4.6666e-19
2.20636e-19
0
0
3.07793e-19
6.5129e-19
1.07474e-18
1.63172e-18
2.39097e-18
3.44353e-18
4.91218e-18
6.96363e-18
9.82475e-18
1.3804e-17
1.93197e-17
2.69375e-17
3.7419e-17
5.17863e-17
7.14046e-17
9.80905e-17
1.34251e-16
1.83061e-16
2.48692e-16
3.36602e-16
4.53899e-16
6.098e-16
8.1621e-16
1.08843e-15
1.44606e-15
1.91406e-15
2.52411e-15
3.31622e-15
4.34073e-15
5.6606e-15
7.35436e-15
9.51935e-15
1.22758e-14
1.57715e-14
2.01872e-14
2.57428e-14
3.2705e-14
4.13952e-14
5.21991e-14
6.55772e-14
8.20763e-14
1.02343e-13
1.27138e-13
1.57349e-13
1.94011e-13
2.38322e-13
2.91657e-13
3.55594e-13
4.31924e-13
5.22674e-13
6.30124e-13
7.56817e-13
9.05578e-13
1.07952e-12
1.28204e-12
1.51685e-12
1.78794e-12
2.09956e-12
2.45624e-12
2.86273e-12
3.32396e-12
3.84501e-12
4.43102e-12
5.08716e-12
5.8185e-12
6.62996e-12
7.52617e-12
8.5114e-12
9.58939e-12
1.07632e-11
1.20353e-11
1.34071e-11
1.4879e-11
1.64502e-11
1.81189e-11
1.98817e-11
2.17338e-11
2.36689e-11
2.56791e-11
2.7755e-11
2.98856e-11
3.20584e-11
3.42595e-11
3.64736e-11
3.86843e-11
4.08742e-11
4.30251e-11
4.51183e-11
4.71348e-11
4.90555e-11
5.08618e-11
5.25355e-11
5.40594e-11
5.54176e-11
5.65953e-11
5.75798e-11
5.83603e-11
5.8928e-11
5.92764e-11
5.94018e-11
5.93027e-11
5.89801e-11
5.84377e-11
5.76817e-11
5.67205e-11
5.55646e-11
5.42268e-11
5.27213e-11
5.1064e-11
4.92722e-11
4.73636e-11
4.53572e-11
4.32717e-11
4.11263e-11
3.89397e-11
3.67302e-11
3.45154e-11
3.23117e-11
3.01345e-11
2.79981e-11
2.59149e-11
2.38963e-11
2.19519e-11
2.00896e-11
1.83159e-11
1.66359e-11
1.50531e-11
1.35695e-11
1.21861e-11
1.09024e-11
9.71728e-12
8.62834e-12
7.63258e-12
6.72632e-12
5.90536e-12
5.16509e-12
4.50062e-12
3.90688e-12
3.37871e-12
2.91097e-12
2.49855e-12
2.1365e-12
1.82005e-12
1.54465e-12
1.306e-12
1.10007e-12
9.23141e-13
7.71759e-13
6.42782e-13
5.33352e-13
4.40892e-13
3.63096e-13
2.97906e-13
2.43505e-13
1.98293e-13
1.60871e-13
1.30023e-13
1.04697e-13
8.39889e-14
6.71247e-14
5.34462e-14
4.23961e-14
3.3505e-14
2.63797e-14
2.06921e-14
1.61702e-14
1.25894e-14
9.76499e-15
7.54599e-15
5.80952e-15
4.45597e-15
3.40506e-15
2.59232e-15
1.96622e-15
1.48579e-15
1.11858e-15
8.38988e-16
6.26945e-16
4.66753e-16
3.46201e-16
2.55832e-16
1.88351e-16
1.38155e-16
1.0096e-16
7.3506e-17
5.3319e-17
3.85326e-17
2.77433e-17
1.99006e-17
1.42211e-17
1.0123e-17
7.17607e-18
5.06277e-18
3.54965e-18
2.46509e-18
1.68269e-18
1.10863e-18
6.72088e-19
3.17778e-19
0
0
4.39037e-19
9.28936e-19
1.53284e-18
2.32722e-18
3.4101e-18
4.91142e-18
7.0063e-18
9.93262e-18
1.4014e-17
1.96907e-17
2.75595e-17
3.84276e-17
5.33819e-17
7.38808e-17
1.01873e-16
1.3995e-16
1.91548e-16
2.61199e-16
3.54857e-16
4.80311e-16
6.47708e-16
8.70206e-16
1.1648e-15
1.55334e-15
2.06379e-15
2.73179e-15
3.60259e-15
4.73331e-15
6.19581e-15
8.08002e-15
1.0498e-14
1.35889e-14
1.75243e-14
2.25153e-14
2.882e-14
3.67526e-14
4.66939e-14
5.91029e-14
7.45307e-14
9.36349e-14
1.17197e-13
1.4614e-13
1.8155e-13
2.24698e-13
2.77061e-13
3.40348e-13
4.16529e-13
5.07853e-13
6.16883e-13
7.46515e-13
9.00005e-13
1.08099e-12
1.2935e-12
1.54199e-12
1.83132e-12
2.16679e-12
2.55408e-12
2.99931e-12
3.50893e-12
4.08972e-12
4.74875e-12
5.49325e-12
6.3306e-12
7.26818e-12
8.31323e-12
9.4728e-12
1.07535e-11
1.21614e-11
1.3702e-11
1.53795e-11
1.71975e-11
1.91579e-11
2.12615e-11
2.35072e-11
2.58921e-11
2.84116e-11
3.10587e-11
3.38245e-11
3.66977e-11
3.96648e-11
4.27102e-11
4.58159e-11
4.89621e-11
5.2127e-11
5.5287e-11
5.84173e-11
6.14919e-11
6.44841e-11
6.73665e-11
7.01122e-11
7.26943e-11
7.50869e-11
7.72654e-11
7.92069e-11
8.08906e-11
8.22981e-11
8.34138e-11
8.42254e-11
8.47237e-11
8.4903e-11
8.47613e-11
8.43003e-11
8.35251e-11
8.24445e-11
8.10705e-11
7.94182e-11
7.75058e-11
7.53538e-11
7.29849e-11
7.04235e-11
6.76954e-11
6.48272e-11
6.18462e-11
5.87795e-11
5.5654e-11
5.24957e-11
4.93298e-11
4.61798e-11
4.30679e-11
4.00141e-11
3.70365e-11
3.41513e-11
3.1372e-11
2.87102e-11
2.61751e-11
2.3774e-11
2.15117e-11
1.93913e-11
1.74141e-11
1.55795e-11
1.38857e-11
1.23294e-11
1.09064e-11
9.61123e-12
8.43801e-12
7.38012e-12
6.43057e-12
5.58212e-12
4.82739e-12
4.159e-12
3.56969e-12
3.05237e-12
2.60021e-12
2.20671e-12
1.86573e-12
1.57151e-12
1.31872e-12
1.10245e-12
9.18182e-13
7.61848e-13
6.29762e-13
5.18626e-13
4.25501e-13
3.47791e-13
2.83208e-13
2.29755e-13
1.85693e-13
1.4952e-13
1.19943e-13
9.58566e-14
7.6321e-14
6.05398e-14
4.78423e-14
3.76668e-14
2.95448e-14
2.30877e-14
1.79744e-14
1.39415e-14
1.07731e-14
8.29373e-15
6.3612e-15
4.8608e-15
3.70047e-15
2.80665e-15
2.1208e-15
1.59659e-15
1.19748e-15
8.94805e-16
6.66149e-16
4.94082e-16
3.651e-16
2.68788e-16
1.97148e-16
1.44067e-16
1.04887e-16
7.60792e-17
5.4979e-17
3.95834e-17
2.83927e-17
2.02889e-17
1.44418e-17
1.02373e-17
7.22223e-18
5.06358e-18
3.51639e-18
2.4003e-18
1.58144e-18
9.58762e-19
4.53359e-19
0
0
6.22355e-19
1.3167e-18
2.1726e-18
3.29849e-18
4.83336e-18
6.96143e-18
9.93103e-18
1.40794e-17
1.98655e-17
2.79135e-17
3.90699e-17
5.44792e-17
7.56831e-17
1.0475e-16
1.44443e-16
1.9844e-16
2.71613e-16
3.70392e-16
5.03222e-16
6.81155e-16
9.18585e-16
1.23418e-15
1.65206e-15
2.20321e-15
2.92733e-15
3.875e-15
5.1104e-15
6.71462e-15
8.78962e-15
1.14631e-14
1.4894e-14
1.92799e-14
2.48644e-14
3.1947e-14
4.08941e-14
5.21519e-14
6.62609e-14
8.3873e-14
1.0577e-13
1.32886e-13
1.66331e-13
2.07416e-13
2.57682e-13
3.18933e-13
3.93269e-13
4.83117e-13
5.91272e-13
7.20932e-13
8.75734e-13
1.05979e-12
1.27773e-12
1.53472e-12
1.83649e-12
2.18935e-12
2.60022e-12
3.07662e-12
3.62664e-12
4.25895e-12
4.98272e-12
5.8076e-12
6.74362e-12
7.80107e-12
8.99043e-12
1.03222e-11
1.18066e-11
1.34538e-11
1.5273e-11
1.72731e-11
1.94615e-11
2.18446e-11
2.44273e-11
2.72124e-11
3.0201e-11
3.33914e-11
3.67798e-11
4.03594e-11
4.41204e-11
4.80501e-11
5.21324e-11
5.63483e-11
6.06755e-11
6.50884e-11
6.95589e-11
7.4056e-11
7.85463e-11
8.29944e-11
8.73634e-11
9.16153e-11
9.57114e-11
9.96131e-11
1.03282e-10
1.06683e-10
1.09778e-10
1.12538e-10
1.1493e-10
1.16931e-10
1.18516e-10
1.1967e-10
1.20378e-10
1.20633e-10
1.20432e-10
1.19777e-10
1.18675e-10
1.1714e-10
1.15187e-10
1.1284e-10
1.10122e-10
1.07064e-10
1.03698e-10
1.00058e-10
9.61814e-11
9.21058e-11
8.78698e-11
8.35121e-11
7.90708e-11
7.4583e-11
7.00844e-11
6.56085e-11
6.11867e-11
5.68475e-11
5.26167e-11
4.85171e-11
4.45681e-11
4.07861e-11
3.71843e-11
3.37727e-11
3.05585e-11
2.75459e-11
2.47368e-11
2.21304e-11
1.9724e-11
1.75131e-11
1.54914e-11
1.36516e-11
1.19849e-11
1.04821e-11
9.13326e-12
7.92804e-12
6.85598e-12
5.90659e-12
5.06953e-12
4.33475e-12
3.69253e-12
3.13365e-12
2.64937e-12
2.23152e-12
1.87252e-12
1.56537e-12
1.3037e-12
1.08169e-12
8.94129e-13
7.36318e-13
6.04087e-13
4.93746e-13
4.02049e-13
3.26155e-13
2.63597e-13
2.12242e-13
1.70252e-13
1.36059e-13
1.08326e-13
8.59245e-14
6.79006e-14
5.34571e-14
4.19289e-14
3.2764e-14
2.55069e-14
1.97832e-14
1.52866e-14
1.17681e-14
9.02569e-15
6.89658e-15
5.25009e-15
3.98182e-15
3.00869e-15
2.26493e-15
1.69869e-15
1.26928e-15
9.44898e-16
7.00803e-16
5.17836e-16
3.81218e-16
2.79602e-16
2.04312e-16
1.48743e-16
1.07886e-16
7.79611e-17
5.61276e-17
4.02581e-17
2.87666e-17
2.04756e-17
1.45138e-17
1.02389e-17
7.1784e-18
4.98491e-18
3.40269e-18
2.24191e-18
1.35924e-18
6.42783e-19
0
0
8.78013e-19
1.85743e-18
3.06469e-18
4.65281e-18
6.81794e-18
9.82004e-18
1.40095e-17
1.98623e-17
2.80261e-17
3.93817e-17
5.5124e-17
7.68683e-17
1.06791e-16
1.47811e-16
2.03829e-16
2.80038e-16
3.83316e-16
5.2274e-16
7.10236e-16
9.61405e-16
1.29658e-15
1.74211e-15
2.33205e-15
3.11019e-15
4.13257e-15
5.47064e-15
7.21504e-15
9.48031e-15
1.24105e-14
1.61859e-14
2.10312e-14
2.72254e-14
3.51127e-14
4.51162e-14
5.77537e-14
7.36556e-14
9.35857e-14
1.18465e-13
1.49399e-13
1.87707e-13
2.34957e-13
2.93003e-13
3.64024e-13
4.50569e-13
5.55604e-13
6.82564e-13
8.35396e-13
1.01862e-12
1.23739e-12
1.49751e-12
1.80552e-12
2.16872e-12
2.59523e-12
3.09397e-12
3.67472e-12
4.34811e-12
5.12559e-12
6.01941e-12
7.04256e-12
8.20867e-12
9.53191e-12
1.10269e-11
1.27084e-11
1.45912e-11
1.669e-11
1.90189e-11
2.15912e-11
2.44191e-11
2.75135e-11
3.08834e-11
3.45354e-11
3.84738e-11
4.26999e-11
4.72117e-11
5.20034e-11
5.70656e-11
6.23845e-11
6.7942e-11
7.37156e-11
7.96781e-11
8.5798e-11
9.20394e-11
9.83623e-11
1.04723e-10
1.11074e-10
1.17365e-10
1.23545e-10
1.29559e-10
1.35353e-10
1.40872e-10
1.46062e-10
1.50872e-10
1.55251e-10
1.59154e-10
1.62539e-10
1.65368e-10
1.67611e-10
1.69243e-10
1.70245e-10
1.70606e-10
1.70322e-10
1.69396e-10
1.67838e-10
1.65666e-10
1.62904e-10
1.59584e-10
1.5574e-10
1.51415e-10
1.46653e-10
1.41505e-10
1.36022e-10
1.30257e-10
1.24266e-10
1.18102e-10
1.1182e-10
1.05473e-10
9.91101e-11
9.27795e-11
8.65255e-11
8.03884e-11
7.44047e-11
6.86066e-11
6.30216e-11
5.76728e-11
5.25789e-11
4.77542e-11
4.32086e-11
3.89483e-11
3.49757e-11
3.12899e-11
2.78871e-11
2.47606e-11
2.19019e-11
1.93003e-11
1.69436e-11
1.48187e-11
1.29116e-11
1.12075e-11
9.69174e-12
8.34946e-12
7.16604e-12
6.12723e-12
5.21932e-12
4.42923e-12
3.74463e-12
3.15395e-12
2.64647e-12
2.21231e-12
1.84244e-12
1.52865e-12
1.26355e-12
1.0405e-12
8.53618e-13
6.97677e-13
5.68088e-13
4.60836e-13
3.72434e-13
2.99864e-13
2.40531e-13
1.92217e-13
1.53033e-13
1.21381e-13
9.59164e-14
7.55109e-14
5.92245e-14
4.62775e-14
3.60259e-14
2.79406e-14
2.15892e-14
1.66194e-14
1.27459e-14
9.73887e-15
7.41353e-15
5.62241e-15
4.24817e-15
3.19788e-15
2.39831e-15
1.79197e-15
1.33395e-15
9.89314e-16
7.30992e-16
5.38117e-16
3.94663e-16
2.88378e-16
2.09935e-16
1.52264e-16
1.10025e-16
7.92089e-17
5.6811e-17
4.05929e-17
2.88922e-17
2.0479e-17
1.44466e-17
1.0128e-17
7.03306e-18
4.80072e-18
3.16306e-18
1.91782e-18
9.07022e-19
0
0
1.23356e-18
2.60937e-18
4.30515e-18
6.53598e-18
9.57752e-18
1.37951e-17
1.96811e-17
2.79043e-17
3.93752e-17
5.53316e-17
7.74529e-17
1.0801e-16
1.50061e-16
2.0771e-16
2.86443e-16
3.93557e-16
5.38723e-16
7.34704e-16
9.98269e-16
1.35136e-15
1.82255e-15
2.44893e-15
3.27836e-15
4.37244e-15
5.80999e-15
7.69149e-15
1.01445e-14
1.333e-14
1.74508e-14
2.27604e-14
2.95751e-14
3.82871e-14
4.93809e-14
6.34519e-14
8.12287e-14
1.03598e-13
1.31635e-13
1.66636e-13
2.10156e-13
2.64053e-13
3.30534e-13
4.12207e-13
5.1214e-13
6.33921e-13
7.81727e-13
9.6039e-13
1.17547e-12
1.43334e-12
1.74122e-12
2.10733e-12
2.54085e-12
3.05208e-12
3.65242e-12
4.35446e-12
5.17197e-12
6.11991e-12
7.21442e-12
8.47274e-12
9.91317e-12
1.15549e-11
1.34179e-11
1.55228e-11
1.78903e-11
2.05414e-11
2.34967e-11
2.6776e-11
3.03982e-11
3.43805e-11
3.87381e-11
4.34836e-11
4.86267e-11
5.41732e-11
6.0125e-11
6.64792e-11
7.32279e-11
8.03576e-11
8.7849e-11
9.56766e-11
1.03809e-10
1.12207e-10
1.20827e-10
1.29619e-10
1.38525e-10
1.47484e-10
1.56431e-10
1.65293e-10
1.73998e-10
1.8247e-10
1.90632e-10
1.98407e-10
2.05719e-10
2.12494e-10
2.18663e-10
2.24162e-10
2.2893e-10
2.32917e-10
2.36077e-10
2.38376e-10
2.39788e-10
2.40297e-10
2.39897e-10
2.38592e-10
2.36398e-10
2.33339e-10
2.29449e-10
2.24771e-10
2.19357e-10
2.13264e-10
2.06556e-10
1.99304e-10
1.9158e-10
1.8346e-10
1.7502e-10
1.66337e-10
1.57489e-10
1.48548e-10
1.39585e-10
1.30668e-10
1.21858e-10
1.13214e-10
1.04785e-10
9.66184e-11
8.87518e-11
8.12181e-11
7.40434e-11
6.7248e-11
6.08458e-11
5.48455e-11
4.92506e-11
4.40597e-11
3.92673e-11
3.48644e-11
3.08385e-11
2.71747e-11
2.38561e-11
2.08638e-11
1.81782e-11
1.57787e-11
1.36444e-11
1.17544e-11
1.00881e-11
8.62548e-12
7.34719e-12
6.23483e-12
5.271e-12
4.43942e-12
3.725e-12
3.11382e-12
2.59315e-12
2.15144e-12
1.77827e-12
1.46432e-12
1.20128e-12
9.81794e-13
7.99405e-13
6.48462e-13
5.2405e-13
4.21922e-13
3.38427e-13
2.70439e-13
2.15301e-13
1.70765e-13
1.34935e-13
1.06225e-13
8.33107e-14
6.50958e-14
5.06736e-14
3.92995e-14
3.03648e-14
2.33739e-14
1.79255e-14
1.36959e-14
1.04254e-14
7.90627e-15
5.97356e-15
4.49652e-15
3.37211e-15
2.51947e-15
1.87543e-15
1.39084e-15
1.02763e-15
7.56457e-16
5.54773e-16
4.05353e-16
2.95079e-16
2.14008e-16
1.54636e-16
1.1132e-16
7.98385e-17
5.70443e-17
4.05998e-17
2.87763e-17
2.0299e-17
1.42305e-17
9.88165e-18
6.74509e-18
4.44423e-18
2.69475e-18
1.27459e-18
0
0
1.72638e-18
3.65148e-18
6.02423e-18
9.14572e-18
1.34019e-17
1.9304e-17
2.75414e-17
3.90505e-17
5.51056e-17
7.74399e-17
1.08405e-16
1.51179e-16
2.10046e-16
2.90753e-16
4.00981e-16
5.50949e-16
7.54203e-16
1.02862e-15
1.39768e-15
1.89212e-15
2.55198e-15
3.42919e-15
4.59083e-15
6.12317e-15
8.13665e-15
1.07721e-14
1.42081e-14
1.86705e-14
2.44431e-14
3.18816e-14
4.14289e-14
5.36349e-14
6.91785e-14
8.88944e-14
1.13804e-13
1.45149e-13
1.84439e-13
2.33489e-13
2.9448e-13
3.70017e-13
4.63193e-13
5.77666e-13
7.17738e-13
8.88441e-13
1.09563e-12
1.34608e-12
1.6476e-12
2.0091e-12
2.44075e-12
2.95403e-12
3.56185e-12
4.27865e-12
5.12042e-12
6.10482e-12
7.25117e-12
8.58045e-12
1.01153e-11
1.18799e-11
1.39e-11
1.62025e-11
1.88154e-11
2.17675e-11
2.50881e-11
2.88066e-11
3.29518e-11
3.75516e-11
4.26325e-11
4.82186e-11
5.43314e-11
6.09885e-11
6.82034e-11
7.59845e-11
8.43343e-11
9.32489e-11
1.02717e-10
1.1272e-10
1.23231e-10
1.34213e-10
1.45623e-10
1.57407e-10
1.69502e-10
1.81837e-10
1.94334e-10
2.06906e-10
2.1946e-10
2.31896e-10
2.44111e-10
2.55999e-10
2.67453e-10
2.78363e-10
2.88623e-10
2.98132e-10
3.06789e-10
3.14506e-10
3.21197e-10
3.26792e-10
3.31228e-10
3.34454e-10
3.36436e-10
3.37151e-10
3.3659e-10
3.34759e-10
3.31681e-10
3.27388e-10
3.2193e-10
3.15366e-10
3.07768e-10
2.99218e-10
2.89806e-10
2.7963e-10
2.68791e-10
2.57396e-10
2.45553e-10
2.3337e-10
2.20953e-10
2.08407e-10
1.95831e-10
1.83318e-10
1.70957e-10
1.58828e-10
1.47002e-10
1.35543e-10
1.24505e-10
1.13935e-10
1.03868e-10
9.43342e-11
8.53519e-11
7.69337e-11
6.90842e-11
6.18017e-11
5.50785e-11
4.89017e-11
4.3254e-11
3.81144e-11
3.3459e-11
2.92616e-11
2.54945e-11
2.21287e-11
1.9135e-11
1.6484e-11
1.41469e-11
1.20955e-11
1.03027e-11
8.74261e-12
7.3909e-12
6.22471e-12
5.22284e-12
4.36577e-12
3.63565e-12
3.01627e-12
2.49302e-12
2.05282e-12
1.68401e-12
1.37628e-12
1.12057e-12
9.08952e-13
7.34539e-13
5.9137e-13
4.74326e-13
3.79023e-13
3.01737e-13
2.39312e-13
1.89092e-13
1.48853e-13
1.1674e-13
9.12125e-14
7.10013e-14
5.50624e-14
4.25424e-14
3.27466e-14
2.51125e-14
1.91863e-14
1.46041e-14
1.10748e-14
8.36722e-15
6.29805e-15
4.72296e-15
3.52862e-15
2.62651e-15
1.94776e-15
1.43906e-15
1.05927e-15
7.76819e-16
5.6757e-16
4.13149e-16
2.99626e-16
2.16491e-16
1.55842e-16
1.11765e-16
7.98523e-17
5.68304e-17
4.02786e-17
2.84118e-17
1.99172e-17
1.38302e-17
9.44021e-18
6.22011e-18
3.77175e-18
1.78418e-18
0
0
2.40696e-18
5.09053e-18
8.39797e-18
1.27493e-17
1.86826e-17
2.6911e-17
3.83958e-17
5.44429e-17
7.68295e-17
1.07973e-16
1.51153e-16
2.10805e-16
2.92902e-16
4.05463e-16
5.59202e-16
7.68379e-16
1.05189e-15
1.43468e-15
1.94952e-15
2.63929e-15
3.55987e-15
4.78374e-15
6.40451e-15
8.54258e-15
1.13521e-14
1.50296e-14
1.98245e-14
2.6052e-14
3.41083e-14
4.44898e-14
5.78152e-14
7.48521e-14
9.65484e-14
1.2407e-13
1.58842e-13
2.02601e-13
2.57451e-13
3.2593e-13
4.11084e-13
5.16551e-13
6.4665e-13
8.06493e-13
1.00209e-12
1.24046e-12
1.5298e-12
1.87957e-12
2.30066e-12
2.80555e-12
3.40842e-12
4.12534e-12
4.97434e-12
5.97557e-12
7.15142e-12
8.52655e-12
1.0128e-11
1.1985e-11
1.41292e-11
1.65946e-11
1.94169e-11
2.26339e-11
2.62846e-11
3.04095e-11
3.50494e-11
4.02453e-11
4.60376e-11
5.24654e-11
5.95656e-11
6.73721e-11
7.59147e-11
8.52183e-11
9.53016e-11
1.06176e-10
1.17846e-10
1.30306e-10
1.43539e-10
1.57521e-10
1.72212e-10
1.87563e-10
2.03511e-10
2.19982e-10
2.36889e-10
2.54133e-10
2.71602e-10
2.89176e-10
3.06725e-10
3.2411e-10
3.41187e-10
3.57806e-10
3.73818e-10
3.8907e-10
4.03415e-10
4.16708e-10
4.28812e-10
4.396e-10
4.48956e-10
4.56778e-10
4.62979e-10
4.67491e-10
4.70262e-10
4.71262e-10
4.70478e-10
4.6792e-10
4.63616e-10
4.57616e-10
4.49985e-10
4.4081e-10
4.30188e-10
4.18236e-10
4.05079e-10
3.90853e-10
3.75701e-10
3.59771e-10
3.43215e-10
3.26184e-10
3.08826e-10
2.91287e-10
2.73707e-10
2.56216e-10
2.38937e-10
2.21981e-10
2.0545e-10
1.89433e-10
1.74004e-10
1.59229e-10
1.45159e-10
1.31832e-10
1.19277e-10
1.07511e-10
9.65402e-11
8.63618e-11
7.69653e-11
6.83326e-11
6.04396e-11
5.32568e-11
4.67508e-11
4.08851e-11
3.56207e-11
3.09173e-11
2.6734e-11
2.30297e-11
1.9764e-11
1.68976e-11
1.43926e-11
1.22129e-11
1.03244e-11
8.69508e-12
7.29539e-12
6.09803e-12
5.07806e-12
4.21282e-12
3.48189e-12
2.86699e-12
2.35183e-12
1.922e-12
1.56485e-12
1.26929e-12
1.0257e-12
8.2575e-13
6.62293e-13
5.29205e-13
4.2128e-13
3.34111e-13
2.63989e-13
2.07804e-13
1.62966e-13
1.27326e-13
9.91088e-14
7.68572e-14
5.93792e-14
4.57048e-14
3.50484e-14
2.67765e-14
2.03807e-14
1.54548e-14
1.16759e-14
8.78815e-15
6.59003e-15
4.92334e-15
3.66451e-15
2.71741e-15
2.00761e-15
1.47771e-15
1.08364e-15
7.9171e-16
5.76281e-16
4.17916e-16
3.01947e-16
2.17348e-16
1.55869e-16
1.11358e-16
7.92498e-17
5.6166e-17
3.96169e-17
2.77713e-17
1.92834e-17
1.31624e-17
8.67279e-18
5.25929e-18
2.48808e-18
0
0
3.34335e-18
7.07027e-18
1.16634e-17
1.77064e-17
2.5947e-17
3.73758e-17
5.33285e-17
7.56195e-17
1.06718e-16
1.49984e-16
2.09974e-16
2.92851e-16
4.0692e-16
5.63322e-16
7.7695e-16
1.06762e-15
1.46162e-15
1.99359e-15
2.70911e-15
3.6678e-15
4.94733e-15
6.64848e-15
8.90141e-15
1.18736e-14
1.57793e-14
2.08918e-14
2.75581e-14
3.62164e-14
4.74179e-14
6.1853e-14
8.03822e-14
1.04073e-13
1.34245e-13
1.72518e-13
2.20877e-13
2.81737e-13
3.58026e-13
4.53275e-13
5.71721e-13
7.18427e-13
8.99406e-13
1.12177e-12
1.39387e-12
1.72551e-12
2.12806e-12
2.6147e-12
3.2006e-12
3.90312e-12
4.74201e-12
5.73961e-12
6.92105e-12
8.3144e-12
9.95079e-12
1.18646e-11
1.40933e-11
1.66779e-11
1.96624e-11
2.30939e-11
2.70223e-11
3.15002e-11
3.65821e-11
4.23241e-11
4.87832e-11
5.60165e-11
6.40803e-11
7.30291e-11
8.29141e-11
9.37828e-11
1.05677e-10
1.1863e-10
1.3267e-10
1.47812e-10
1.64061e-10
1.8141e-10
1.99838e-10
2.19306e-10
2.39764e-10
2.61141e-10
2.8335e-10
3.06288e-10
3.29834e-10