# vtk DataFile Version 3.0
2D field
ASCII
DATASET STRUCTURED_POINTS
DIMENSIONS 201 201 1
ORIGIN 0 0 0
SPACING 0.005 0.005 1
POINT_DATA 40401
SCALARS temperature double 1
LOOKUP_TABLE default
0
0
0
0
0
0
0
0
0
0
0
0
0
0
0
0
0
0
0
0
0
0
0
0
0
0
0
0
0
0
0
0
0
0
0
0
0
0
0
0
0
0
0
0
0
0
0
0
0
0
0
0
0
0
0
0
0
0
0
0
0
0
0
0
0
0
0
0
0
0
0
0
0
0
0
0
0
0
0
0
0
0
0
0
0
0
0
0
0
0
0
0
0
0
0
0
0
0
0
0
0
0
0
0
0
0
0
0
0
0
0
0
0
0
0
0
0
0
0
0
0
0
0
0
0
0
0
0
0
0
0
0
0
0
0
0
0
0
0
0
0
0
0
0
0
0
0
0
0
0
0
0
0
0
0
0
0
0
0
0
0
0
0
0
0
0
0
0
0
0
0
0
0
0
0
0
0
0
0
0
0
0
0
0
0
0
0
0
0
0
0
0
0
0
0
0
0
0
0
0
0
0
4.51935e-19
9.53414e-19
1.55924e-18
2.33421e-18
3.3591e-18
4.73797e-18
6.60717e-18
9.14693e-18
1.2596e-17
1.72708e-17
2.35896e-17
3.21038e-17
4.35384e-17
5.88426e-17
7.92547e-17
1.06384e-16
1.42315e-16
1.89734e-16
2.52094e-16
3.33811e-16
4.40514e-16
5.79347e-16
7.59341e-16
9.91867e-16
1.29118e-15
1.6751e-15
2.16575e-15
2.79056e-15
3.58335e-15
4.58565e-15
5.84825e-15
7.43297e-15
9.41478e-15
1.18841e-14
1.49498e-14
1.87418e-14
2.3415e-14
2.91531e-14
3.61726e-14
4.4728e-14
5.51167e-14
6.76846e-14
8.28321e-14
1.0102e-13
1.22777e-13
1.48705e-13
1.79486e-13
2.15891e-13
2.58781e-13
3.0912e-13
3.67972e-13
4.36511e-13
5.16021e-13
6.07899e-13
7.1365e-13
8.34889e-13
9.73329e-13
1.13078e-12
1.30913e-12
1.51033e-12
1.73639e-12
1.98932e-12
2.27114e-12
2.58385e-12
2.92934e-12
3.30942e-12
3.72575e-12
4.17978e-12
4.67273e-12
5.20552e-12
5.77874e-12
6.3926e-12
7.04686e-12
7.74083e-12
8.47329e-12
9.24248e-12
1.00461e-11
1.08811e-11
1.17442e-11
1.26311e-11
1.35372e-11
1.44571e-11
1.53852e-11
1.63152e-11
1.72405e-11
1.8154e-11
1.90484e-11
1.99165e-11
2.07506e-11
2.15433e-11
2.22873e-11
2.29757e-11
2.36016e-11
2.4159e-11
2.46421e-11
2.50461e-11
2.53668e-11
2.56007e-11
2.57455e-11
2.57996e-11
2.57625e-11
2.56344e-11
2.54168e-11
2.5112e-11
2.47231e-11
2.42542e-11
2.37101e-11
2.30963e-11
2.24189e-11
2.16845e-11
2.09e-11
2.00727e-11
1.92101e-11
1.83197e-11
1.74088e-11
1.64849e-11
1.55549e-11
1.46256e-11
1.37033e-11
1.27939e-11
1.19028e-11
1.10347e-11
1.01939e-11
9.38397e-12
8.60802e-12
7.86845e-12
7.16712e-12
6.50536e-12
5.88396e-12
5.30322e-12
4.76301e-12
4.26283e-12
3.80179e-12
3.37873e-12
2.99223e-12
2.64066e-12
2.32224e-12
2.03507e-12
1.77718e-12
1.54655e-12
1.34115e-12
1.15897e-12
9.98042e-13
8.56465e-13
7.3241e-13
6.24144e-13
5.30031e-13
4.48544e-13
3.78266e-13
3.17891e-13
2.66225e-13
2.22183e-13
1.84785e-13
1.53148e-13
1.26489e-13
1.04109e-13
8.5393e-14
6.97993e-14
5.68562e-14
4.61534e-14
3.73361e-14
3.00992e-14
2.41815e-14
1.93604e-14
1.54472e-14
1.22825e-14
9.73268e-15
7.68571e-15
6.04843e-15
4.74361e-15
3.70754e-15
2.88783e-15
2.24166e-15
1.73412e-15
1.3369e-15
1.02716e-15
7.86477e-16
6.00139e-16
4.56387e-16
3.45885e-16
2.61244e-16
1.96644e-16
1.47514e-16
1.10282e-16
8.21665e-17
6.101e-17
4.51459e-17
3.32917e-17
2.44642e-17
1.79123e-17
1.30647e-17
9.48785e-18
6.85383e-18
4.91513e-18
3.48492e-18
2.4218e-18
1.61788e-18
9.89354e-19
4.6902e-19
0
0
9.5335e-19
2.01131e-18
3.28944e-18
4.92441e-18
7.08664e-18
9.99567e-18
1.39392e-17
1.92974e-17
2.65742e-17
3.64369e-17
4.97681e-17
6.77313e-17
9.1856e-17
1.24145e-16
1.6721e-16
2.24448e-16
3.00255e-16
4.00301e-16
5.31869e-16
7.04276e-16
9.294e-16
1.22231e-15
1.60206e-15
2.09265e-15
2.72415e-15
3.53413e-15
4.5693e-15
5.88752e-15
7.56013e-15
9.67475e-15
1.23385e-14
1.56819e-14
1.98629e-14
2.50726e-14
3.15402e-14
3.95401e-14
4.9399e-14
6.15043e-14
7.63129e-14
9.43615e-14
1.16277e-13
1.4279e-13
1.74744e-13
2.13112e-13
2.59008e-13
3.13702e-13
3.78634e-13
4.55426e-13
5.45898e-13
6.5208e-13
7.76218e-13
9.20788e-13
1.0885e-12
1.28229e-12
1.50534e-12
1.76105e-12
2.05304e-12
2.38512e-12
2.76128e-12
3.18562e-12
3.66238e-12
4.1958e-12
4.79016e-12
5.44962e-12
6.17821e-12
6.97975e-12
7.8577e-12
8.81515e-12
9.85465e-12
1.09782e-11
1.21869e-11
1.34813e-11
1.48609e-11
1.63242e-11
1.78686e-11
1.94905e-11
2.11848e-11
2.29456e-11
2.47652e-11
2.66352e-11
2.85455e-11
3.04851e-11
3.24419e-11
3.44026e-11
3.63533e-11
3.82791e-11
4.01649e-11
4.19949e-11
4.37533e-11
4.54245e-11
4.69931e-11
4.84442e-11
4.97637e-11
5.09387e-11
5.19572e-11
5.28088e-11
5.34847e-11
5.39779e-11
5.42831e-11
5.43971e-11
5.43187e-11
5.40487e-11
5.359e-11
5.29473e-11
5.21275e-11
5.11389e-11
4.99919e-11
4.86978e-11
4.72697e-11
4.57213e-11
4.40674e-11
4.23234e-11
4.05048e-11
3.86276e-11
3.67073e-11
3.47593e-11
3.27986e-11
3.08394e-11
2.88949e-11
2.69776e-11
2.50987e-11
2.32685e-11
2.14957e-11
1.97881e-11
1.8152e-11
1.65927e-11
1.51139e-11
1.37186e-11
1.24083e-11
1.11837e-11
1.00446e-11
8.98992e-12
8.01774e-12
7.12562e-12
6.31058e-12
5.5692e-12
4.89771e-12
4.29212e-12
3.74826e-12
3.26188e-12
2.8287e-12
2.44448e-12
2.10509e-12
1.80649e-12
1.54485e-12
1.31651e-12
1.11801e-12
9.46137e-13
7.97905e-13
6.7056e-13
5.61583e-13
4.68686e-13
3.89799e-13
3.23067e-13
2.66833e-13
2.19624e-13
1.80143e-13
1.47248e-13
1.19945e-13
9.73668e-14
7.87663e-14
6.34995e-14
5.10155e-14
4.08448e-14
3.25892e-14
2.59129e-14
2.05335e-14
1.6215e-14
1.27608e-14
1.0008e-14
7.82216e-15
6.09277e-15
4.72949e-15
3.65868e-15
2.82064e-15
2.16713e-15
1.65934e-15
1.2662e-15
9.62907e-16
7.29765e-16
5.51187e-16
4.1489e-16
3.11233e-16
2.32679e-16
1.73359e-16
1.28722e-16
9.52507e-17
7.02401e-17
5.16153e-17
3.77919e-17
2.75642e-17
2.00176e-17
1.44602e-17
1.03699e-17
7.35242e-18
5.10943e-18
3.41329e-18
2.08722e-18
9.89422e-19
0
0
1.55898e-18
3.2891e-18
5.37933e-18
8.05318e-18
1.15894e-17
1.63472e-17
2.2797e-17
3.15608e-17
4.34629e-17
5.95949e-17
8.14008e-17
1.10784e-16
1.50247e-16
2.03065e-16
2.73514e-16
3.6715e-16
4.91165e-16
6.54837e-16
8.70083e-16
1.15215e-15
1.52047e-15
1.99971e-15
2.62105e-15
3.42374e-15
4.45702e-15
5.78236e-15
7.47621e-15
9.63326e-15
1.23703e-14
1.58306e-14
2.01897e-14
2.5661e-14
3.25034e-14
4.10292e-14
5.16138e-14
6.47065e-14
8.08418e-14
1.00654e-13
1.24891e-13
1.54432e-13
1.90302e-13
2.33698e-13
2.86e-13
3.48802e-13
4.23927e-13
5.13454e-13
6.1974e-13
7.45444e-13
8.93543e-13
1.06736e-12
1.27057e-12
1.50724e-12
1.78178e-12
2.09903e-12
2.46418e-12
2.88281e-12
3.36083e-12
3.90449e-12
4.52031e-12
5.21504e-12
5.99557e-12
6.8689e-12
7.84198e-12
8.92167e-12
1.01146e-11
1.14269e-11
1.28643e-11
1.44319e-11
1.61339e-11
1.79734e-11
1.99525e-11
2.20719e-11
2.43308e-11
2.67267e-11
2.92555e-11
3.1911e-11
3.46854e-11
3.75683e-11
4.05479e-11
4.36097e-11
4.67377e-11
4.99137e-11
5.31177e-11
5.63283e-11
5.95224e-11
6.26758e-11
6.57636e-11
6.87602e-11
7.16395e-11
7.43761e-11
7.69445e-11
7.93207e-11
8.14814e-11
8.34054e-11
8.50731e-11
8.64677e-11
8.75746e-11
8.83822e-11
8.8882e-11
8.90687e-11
8.89404e-11
8.84983e-11
8.77471e-11
8.66948e-11
8.53524e-11
8.37338e-11
8.18555e-11
7.97367e-11
7.73982e-11
7.48628e-11
7.21547e-11
6.9299e-11
6.63212e-11
6.32473e-11
6.01029e-11
5.69133e-11
5.37028e-11
5.04947e-11
4.73108e-11
4.41713e-11
4.10949e-11
3.8098e-11
3.51953e-11
3.23992e-11
2.97204e-11
2.71671e-11
2.47458e-11
2.24611e-11
2.03157e-11
1.83107e-11
1.64456e-11
1.47187e-11
1.31269e-11
1.16662e-11
1.03317e-11
9.11785e-12
8.01844e-12
7.02692e-12
6.13648e-12
5.34015e-12
4.63093e-12
4.00188e-12
3.44622e-12
2.95737e-12
2.52901e-12
2.15518e-12
1.83021e-12
1.54883e-12
1.30616e-12
1.09768e-12
9.19282e-13
7.67203e-13
6.38064e-13
5.28823e-13
4.36768e-13
3.59488e-13
2.9486e-13
2.41014e-13
1.96321e-13
1.59364e-13
1.28918e-13
1.03929e-13
8.34949e-14
6.68478e-14
5.33356e-14
4.24084e-14
3.36041e-14
2.65361e-14
2.08829e-14
1.63777e-14
1.28004e-14
9.97017e-15
7.73915e-15
5.98681e-15
4.61541e-15
3.546e-15
2.71507e-15
2.07175e-15
1.57547e-15
1.19399e-15
9.01793e-16
6.78784e-16
5.09184e-16
3.8066e-16
2.83607e-16
2.10578e-16
1.55819e-16
1.14902e-16
8.44326e-17
6.18189e-17
4.50877e-17
3.27427e-17
2.36521e-17
1.69613e-17
1.20256e-17
8.35685e-18
5.58259e-18
3.41366e-18
1.61817e-18
0
0
2.3335e-18
4.92324e-18
8.05211e-18
1.20548e-17
1.73486e-17
2.44714e-17
3.41278e-17
4.72492e-17
6.50699e-17
8.92252e-17
1.21877e-16
1.65878e-16
2.24974e-16
3.04075e-16
4.09583e-16
5.49822e-16
7.3557e-16
9.80724e-16
1.30314e-15
1.72567e-15
2.27742e-15
2.99537e-15
3.92623e-15
5.12884e-15
6.67698e-15
8.6628e-15
1.12009e-14
1.44331e-14
1.85346e-14
2.37203e-14
3.02531e-14
3.84531e-14
4.87083e-14
6.14871e-14
7.73526e-14
9.6978e-14
1.21165e-13
1.50866e-13
1.87201e-13
2.31488e-13
2.85268e-13
3.50332e-13
4.28754e-13
5.22922e-13
6.35572e-13
7.69824e-13
9.29213e-13
1.11773e-12
1.33984e-12
1.60052e-12
1.90531e-12
2.26028e-12
2.67208e-12
3.14796e-12
3.6957e-12
4.32368e-12
5.04078e-12
5.85638e-12
6.78026e-12
7.82255e-12
8.99362e-12
1.03039e-11
1.1764e-11
1.3384e-11
1.5174e-11
1.71432e-11
1.93002e-11
2.16526e-11
2.42067e-11
2.69673e-11
2.99375e-11
3.31182e-11
3.65083e-11
4.01043e-11
4.38997e-11
4.78855e-11
5.20496e-11
5.63769e-11
6.08492e-11
6.54452e-11
7.01405e-11
7.49079e-11
7.97176e-11
8.45371e-11
8.9332e-11
9.40659e-11
9.87014e-11
1.032e-10
1.07523e-10
1.11631e-10
1.15487e-10
1.19054e-10
1.22298e-10
1.25187e-10
1.27691e-10
1.29785e-10
1.31447e-10
1.32659e-10
1.3341e-10
1.3369e-10
1.33498e-10
1.32834e-10
1.31707e-10
1.30127e-10
1.28112e-10
1.25682e-10
1.22863e-10
1.19682e-10
1.16171e-10
1.12365e-10
1.083e-10
1.04013e-10
9.95426e-11
9.49281e-11
9.02078e-11
8.54197e-11
8.06003e-11
7.57845e-11
7.10051e-11
6.62925e-11
6.16745e-11
5.7176e-11
5.28189e-11
4.8622e-11
4.4601e-11
4.07686e-11
3.71344e-11
3.37053e-11
3.04853e-11
2.7476e-11
2.46769e-11
2.20851e-11
1.96962e-11
1.75042e-11
1.55015e-11
1.36799e-11
1.20301e-11
1.05423e-11
9.20615e-12
8.01125e-12
6.9471e-12
6.00327e-12
5.16956e-12
4.43612e-12
3.79347e-12
3.23262e-12
2.74511e-12
2.323e-12
1.95897e-12
1.64625e-12
1.37865e-12
1.15054e-12
9.5684e-13
7.92996e-13
6.54931e-13
5.39033e-13
4.4211e-13
3.61362e-13
2.94341e-13
2.38923e-13
1.9327e-13
1.55802e-13
1.25164e-13
1.00205e-13
7.99476e-14
6.35658e-14
5.03671e-14
3.97719e-14
3.12977e-14
2.45447e-14
1.91827e-14
1.49408e-14
1.1597e-14
8.97082e-15
6.9156e-15
5.31301e-15
4.06786e-15
3.10389e-15
2.36027e-15
1.78869e-15
1.3509e-15
1.01679e-15
7.62706e-16
5.70167e-16
4.24781e-16
3.15387e-16
2.33364e-16
1.72077e-16
1.26442e-16
9.25732e-17
6.75159e-17
4.90283e-17
3.54149e-17
2.53958e-17
1.80051e-17
1.25118e-17
8.35801e-18
5.11069e-18
2.42257e-18
0
0
3.35756e-18
7.08385e-18
1.15861e-17
1.73459e-17
2.49643e-17
3.52151e-17
4.91131e-17
6.79992e-17
9.36505e-17
1.28422e-16
1.75427e-16
2.38772e-16
3.23855e-16
4.37744e-16
5.89663e-16
7.91603e-16
1.05909e-15
1.41214e-15
1.87649e-15
2.48505e-15
3.27978e-15
4.31394e-15
5.65488e-15
7.38739e-15
9.6178e-15
1.24789e-14
1.6136e-14
2.07935e-14
2.67039e-14
3.41772e-14
4.35922e-14
5.54108e-14
7.01923e-14
8.86125e-14
1.11483e-13
1.39776e-13
1.74647e-13
2.17468e-13
2.69859e-13
3.33719e-13
4.11272e-13
5.05103e-13
6.18203e-13
7.54019e-13
9.16502e-13
1.11015e-12
1.34007e-12
1.61202e-12
1.93245e-12
2.30856e-12
2.74832e-12
3.26051e-12
3.85473e-12
4.54144e-12
5.33191e-12
6.23821e-12
7.27318e-12
8.45037e-12
9.78391e-12
1.12884e-11
1.29789e-11
1.48705e-11
1.69783e-11
1.93173e-11
2.19016e-11
2.47449e-11
2.78595e-11
3.12563e-11
3.49445e-11
3.89311e-11
4.32204e-11
4.7814e-11
5.27102e-11
5.79039e-11
6.33858e-11
6.91429e-11
7.51578e-11
8.14086e-11
8.78689e-11
9.45082e-11
1.01291e-10
1.08178e-10
1.15127e-10
1.2209e-10
1.29017e-10
1.35857e-10
1.42555e-10
1.49054e-10
1.553e-10
1.61236e-10
1.66808e-10
1.71963e-10
1.76651e-10
1.80825e-10
1.84443e-10
1.87469e-10
1.89871e-10
1.91624e-10
1.92709e-10
1.93115e-10
1.92837e-10
1.91879e-10
1.9025e-10
1.87968e-10
1.85057e-10
1.81546e-10
1.77472e-10
1.72877e-10
1.67804e-10
1.62305e-10
1.56432e-10
1.50238e-10
1.43779e-10
1.37112e-10
1.30292e-10
1.23375e-10
1.16412e-10
1.09454e-10
1.02549e-10
9.57413e-11
8.907e-11
8.25714e-11
7.62773e-11
7.02147e-11
6.44064e-11
5.88706e-11
5.36213e-11
4.86683e-11
4.40175e-11
3.96712e-11
3.56286e-11
3.18855e-11
2.84356e-11
2.527e-11
2.23781e-11
1.97477e-11
1.73655e-11
1.52172e-11
1.3288e-11
1.15629e-11
1.00265e-11
8.66398e-12
7.46046e-12
6.40171e-12
5.47407e-12
4.66455e-12
3.9609e-12
3.3517e-12
2.82633e-12
2.37504e-12
1.98887e-12
1.65971e-12
1.38023e-12
1.14383e-12
9.44636e-13
7.77431e-13
6.3761e-13
5.21128e-13
4.24454e-13
3.44521e-13
2.78676e-13
2.24638e-13
1.80455e-13
1.44463e-13
1.15252e-13
9.16311e-14
7.2601e-14
5.73256e-14
4.51088e-14
3.53739e-14
2.76447e-14
2.15304e-14
1.6711e-14
1.2926e-14
9.96408e-15
7.65464e-15
5.86038e-15
4.47139e-15
3.39997e-15
2.57646e-15
1.94576e-15
1.46445e-15
1.09844e-15
8.21106e-16
6.11701e-16
4.54146e-16
3.36018e-16
2.47759e-16
1.82043e-16
1.33275e-16
9.71956e-17
7.05775e-17
5.09783e-17
3.65547e-17
2.59155e-17
1.80081e-17
1.20293e-17
7.35543e-18
3.48659e-18
0
0
4.73496e-18
9.99e-18
1.63396e-17
2.44633e-17
3.5209e-17
4.96689e-17
6.92747e-17
9.59189e-17
1.3211e-16
1.81171e-16
2.47498e-16
3.36887e-16
4.5696e-16
6.17695e-16
8.32118e-16
1.11716e-15
1.49474e-15
1.99315e-15
2.64872e-15
3.50795e-15
4.6301e-15
6.09043e-15
7.98409e-15
1.04309e-14
1.35811e-14
1.76224e-14
2.27882e-14
2.93679e-14
3.7718e-14
4.82767e-14
6.158e-14
7.82804e-14
9.91693e-14
1.25202e-13
1.57527e-13
1.97517e-13
2.4681e-13
3.07346e-13
3.81414e-13
4.71704e-13
5.81361e-13
7.14042e-13
8.73984e-13
1.06606e-12
1.29587e-12
1.56978e-12
1.89501e-12
2.27972e-12
2.73304e-12
3.26517e-12
3.88738e-12
4.61213e-12
5.45301e-12
6.42483e-12
7.54355e-12
8.82629e-12
1.02912e-11
1.19576e-11
1.38453e-11
1.59753e-11
1.83686e-11
2.10469e-11
2.40314e-11
2.73433e-11
3.1003e-11
3.50295e-11
3.94405e-11
4.42514e-11
4.94753e-11
5.5122e-11
6.11979e-11
6.77051e-11
7.46413e-11
8.19991e-11
8.97656e-11
9.79224e-11
1.06445e-10
1.15302e-10
1.24456e-10
1.33864e-10
1.43476e-10
1.53236e-10
1.63083e-10
1.72951e-10
1.8277e-10
1.92464e-10
2.01956e-10
2.11169e-10
2.20022e-10
2.28436e-10
2.36335e-10
2.43642e-10
2.50287e-10
2.56204e-10
2.61334e-10
2.65624e-10
2.6903e-10
2.71515e-10
2.73054e-10
2.7363e-10
2.73237e-10
2.7188e-10
2.69572e-10
2.66338e-10
2.62212e-10
2.57236e-10
2.51462e-10
2.44949e-10
2.3776e-10
2.29965e-10
2.2164e-10
2.12861e-10
2.03707e-10
1.94258e-10
1.84593e-10
1.74789e-10
1.64921e-10
1.55061e-10
1.45275e-10
1.35627e-10
1.26173e-10
1.16964e-10
1.08045e-10
9.94548e-11
9.12248e-11
8.33812e-11
7.59437e-11
6.89263e-11
6.23373e-11
5.618e-11
5.0453e-11
4.51507e-11
4.02639e-11
3.578e-11
3.16839e-11
2.79584e-11
2.45846e-11
2.15422e-11
1.88103e-11
1.63674e-11
1.4192e-11
1.22627e-11
1.05587e-11
9.05982e-12
7.74659e-12
6.60063e-12
5.60462e-12
4.74234e-12
3.99877e-12
3.36007e-12
2.81358e-12
2.34779e-12
1.95232e-12
1.61784e-12
1.33602e-12
1.09947e-12
9.01675e-13
7.36906e-13
6.00166e-13
4.87112e-13
3.9399e-13
3.17572e-13
2.55094e-13
2.04202e-13
1.629e-13
1.29506e-13
1.02603e-13
8.10099e-14
6.37415e-14
4.99822e-14
3.90586e-14
3.04178e-14
2.36074e-14
1.82592e-14
1.40743e-14
1.08115e-14
8.27676e-15
6.31464e-15
4.80123e-15
3.63809e-15
2.74734e-15
2.06761e-15
1.55076e-15
1.15915e-15
8.63477e-16
6.41032e-16
4.74264e-16
3.49672e-16
2.56909e-16
1.88073e-16
1.37151e-16
9.95851e-17
7.19266e-17
5.15732e-17
3.65612e-17
2.54046e-17
1.69695e-17
1.0376e-17
4.91837e-18
0
0
6.60175e-18
1.39287e-17
2.27822e-17
3.41102e-17
4.90955e-17
6.92618e-17
9.6607e-17
1.33772e-16
1.84256e-16
2.52699e-16
3.45235e-16
4.69955e-16
6.37498e-16
8.61796e-16
1.16103e-15
1.55885e-15
2.08587e-15
2.78158e-15
3.69673e-15
4.89626e-15
6.46299e-15
8.50202e-15
1.11463e-14
1.45632e-14
1.89628e-14
2.46073e-14
3.18231e-14
4.10144e-14
5.26798e-14
6.74319e-14
8.60199e-14
1.09357e-13
1.38548e-13
1.74931e-13
2.20111e-13
2.7601e-13
3.44918e-13
4.29548e-13
5.33104e-13
6.59352e-13
8.1269e-13
9.9824e-13
1.22193e-12
1.49058e-12
1.81203e-12
2.1952e-12
2.65019e-12
3.18844e-12
3.82273e-12
4.56733e-12
5.43806e-12
6.45234e-12
7.62924e-12
8.9895e-12
1.05555e-11
1.23512e-11
1.44021e-11
1.67351e-11
1.93783e-11
2.23608e-11
2.57124e-11
2.94631e-11
3.3643e-11
3.82818e-11
4.34079e-11
4.90482e-11
5.52274e-11
6.19673e-11
6.92862e-11
7.71978e-11
8.57111e-11
9.48294e-11
1.04549e-10
1.1486e-10
1.25745e-10
1.37177e-10
1.49122e-10
1.61536e-10
1.74367e-10
1.87555e-10
2.0103e-10
2.14712e-10
2.28518e-10
2.42352e-10
2.56118e-10
2.69709e-10
2.83019e-10
2.95937e-10
3.08351e-10
3.2015e-10
3.31225e-10
3.41473e-10
3.50792e-10
3.59091e-10
3.66285e-10
3.72302e-10
3.77079e-10
3.80566e-10
3.82725e-10
3.83534e-10
3.82985e-10
3.81082e-10
3.77847e-10
3.73313e-10
3.67528e-10
3.60552e-10
3.52457e-10
3.43324e-10
3.33244e-10
3.22316e-10
3.10643e-10
2.98334e-10
2.85499e-10
2.72251e-10
2.587e-10
2.44954e-10
2.3112e-10
2.17296e-10
2.03578e-10
1.90052e-10
1.76799e-10
1.6389e-10
1.51388e-10
1.39346e-10
1.27811e-10
1.16817e-10
1.06393e-10
9.6558e-11
8.73239e-11
7.86952e-11
7.06699e-11
6.324e-11
5.63926e-11
5.01101e-11
4.43713e-11
3.91521e-11
3.44256e-11
3.01638e-11
2.63371e-11
2.29154e-11
1.98686e-11
1.71666e-11
1.47804e-11
1.26814e-11
1.08425e-11
9.23804e-12
7.84356e-12
6.6364e-12
5.59549e-12
4.70145e-12
3.93653e-12
3.28463e-12
2.73117e-12
2.2631e-12
1.86875e-12
1.53777e-12
1.26104e-12
1.03053e-12
8.39245e-13
6.81107e-13
5.5086e-13
4.43983e-13
3.56609e-13
2.85444e-13
2.27694e-13
1.81004e-13
1.43393e-13
1.13207e-13
8.9069e-14
6.98373e-14
5.45704e-14
4.24949e-14
3.29782e-14
2.55052e-14
1.96581e-14
1.50997e-14
1.15588e-14
8.81796e-15
6.70411e-15
5.07962e-15
3.83565e-15
2.88645e-15
2.16476e-15
1.61798e-15
1.20519e-15
8.94651e-16
6.61857e-16
4.8795e-16
3.58479e-16
2.62411e-16
1.91349e-16
1.38929e-16
1.00337e-16
7.19404e-17
5.09973e-17
3.54339e-17
2.3668e-17
1.44715e-17
6.85968e-18
0
0
9.13763e-18
1.92792e-17
3.15342e-17
4.72157e-17
6.79616e-17
9.58825e-17
1.33746e-16
1.85209e-16
2.55123e-16
3.49914e-16
4.78082e-16
6.50841e-16
8.82934e-16
1.19367e-15
1.60826e-15
2.15948e-15
2.88977e-15
3.8539e-15
5.12223e-15
6.78484e-15
8.95656e-15
1.17832e-14
1.54492e-14
2.01867e-14
2.62872e-14
3.41146e-14
4.41217e-14
5.68695e-14
7.30502e-14
9.35141e-14
1.19301e-13
1.51679e-13
1.92183e-13
2.4267e-13
3.0537e-13
3.82951e-13
4.78594e-13
5.9607e-13
7.39831e-13
9.15106e-13
1.12801e-12
1.38566e-12
1.69629e-12
2.0694e-12
2.51587e-12
3.0481e-12
3.68015e-12
4.42791e-12
5.30917e-12
6.34377e-12
7.55372e-12
8.96325e-12
1.05989e-11
1.24895e-11
1.46662e-11
1.71625e-11
2.00137e-11
2.32573e-11
2.69324e-11
3.10796e-11
3.57402e-11
4.09564e-11
4.67698e-11
5.32218e-11
6.0352e-11
6.8198e-11
7.67942e-11
8.6171e-11
9.63537e-11
1.07362e-10
1.19208e-10
1.31897e-10
1.45423e-10
1.59773e-10
1.74922e-10
1.90833e-10
2.07459e-10
2.2474e-10
2.42602e-10
2.6096e-10
2.79719e-10
2.98768e-10
3.17989e-10
3.37251e-10
3.56418e-10
3.75343e-10
3.93877e-10
4.11865e-10
4.29152e-10
4.45584e-10
4.61009e-10
4.7528e-10
4.88259e-10
4.99818e-10
5.09839e-10
5.18221e-10
5.24875e-10
5.29732e-10
5.32742e-10
5.33871e-10
5.33107e-10
5.3046e-10
5.25956e-10
5.19644e-10
5.11589e-10
5.01875e-10
4.90603e-10
4.77885e-10
4.6385e-10
4.48632e-10
4.32379e-10
4.15239e-10
3.97368e-10
3.78921e-10
3.60052e-10
3.40913e-10
3.2165e-10
3.02404e-10
2.83304e-10
2.64474e-10
2.46023e-10
2.28052e-10
2.10648e-10
1.93885e-10
1.77828e-10
1.62525e-10
1.48016e-10
1.34328e-10
1.21476e-10
1.09468e-10
9.82996e-11
8.79606e-11
7.84325e-11
6.9691e-11
6.17065e-11
5.44451e-11
4.78699e-11
4.19413e-11
3.66183e-11
3.1859e-11
2.76213e-11
2.38636e-11
2.05451e-11
1.76264e-11
1.50695e-11
1.28386e-11
1.08999e-11
9.22174e-12
7.77479e-12
6.53209e-12
5.46895e-12
4.56294e-12
3.79382e-12
3.1434e-12
2.59547e-12
2.13562e-12
1.75117e-12
1.43096e-12
1.16526e-12
9.45622e-13
7.64734e-13
6.16314e-13
4.94989e-13
3.96178e-13
3.16001e-13
2.51182e-13
1.98974e-13
1.57075e-13
1.23574e-13
9.68843e-14
7.56988e-14
5.89433e-14
4.57394e-14
3.53719e-14
2.72608e-14
2.09379e-14
1.60266e-14
1.22254e-14
9.29402e-15
7.04142e-15
5.3166e-15
4.00062e-15
3.00012e-15
2.24218e-15
1.67001e-15
1.23961e-15
9.1699e-16
6.75997e-16
4.96595e-16
3.63487e-16
2.65035e-16
1.92416e-16
1.38957e-16
9.96243e-17
7.0618e-17
4.90645e-17
3.27714e-17
2.00373e-17
9.49788e-18
0
0
1.25807e-17
2.65437e-17
4.34175e-17
6.50107e-17
9.358e-17
1.32033e-16
1.84183e-16
2.55072e-16
3.51382e-16
4.81971e-16
6.58558e-16
8.966e-16
1.21642e-15
1.64465e-15
2.21605e-15
2.97581e-15
3.98247e-15
5.31157e-15
7.06018e-15
9.35256e-15
1.23471e-14
1.62451e-14
2.1301e-14
2.78353e-14
3.62501e-14
4.70479e-14
6.08539e-14
7.84424e-14
1.00769e-13
1.29009e-13
1.64598e-13
2.09286e-13
2.65195e-13
3.3489e-13
4.21452e-13
5.28568e-13
6.60634e-13
8.22861e-13
1.0214e-12
1.26349e-12
1.55757e-12
1.91349e-12
2.34265e-12
2.85815e-12
3.47507e-12
4.21054e-12
5.08405e-12
6.11754e-12
7.33564e-12
8.76581e-12
1.04385e-11
1.23873e-11
1.46489e-11
1.72632e-11
2.02734e-11
2.37257e-11
2.76692e-11
3.21558e-11
3.72397e-11
4.2977e-11
4.94251e-11
5.66421e-11
6.46863e-11
7.36145e-11
8.34821e-11
9.43409e-11
1.06239e-10
1.19218e-10
1.33313e-10
1.48552e-10
1.64952e-10
1.8252e-10
2.01248e-10
2.21118e-10
2.42095e-10
2.64129e-10
2.87154e-10
3.11086e-10
3.35825e-10
3.61254e-10
3.87237e-10
4.13623e-10
4.40249e-10
4.66933e-10
4.93486e-10
5.19705e-10
5.45383e-10
5.70306e-10
5.94259e-10
6.17026e-10
6.384e-10
6.58175e-10
6.76161e-10
6.9218e-10
7.06068e-10
7.17684e-10
7.26907e-10
7.33641e-10
7.37813e-10
7.3938e-10
7.38326e-10
7.3466e-10
7.28422e-10
7.19677e-10
7.08519e-10
6.95062e-10
6.79444e-10
6.61825e-10
6.42379e-10
6.21296e-10
5.98778e-10
5.75032e-10
5.50273e-10
5.24716e-10
4.98576e-10
4.72062e-10
4.45377e-10
4.18715e-10
3.92258e-10
3.66174e-10
3.40617e-10
3.15724e-10
2.91618e-10
2.68402e-10
2.46163e-10
2.24971e-10
2.04878e-10
1.85923e-10
1.68127e-10
1.515e-10
1.36037e-10
1.21722e-10
1.08531e-10
9.643e-11
8.53772e-11
7.53261e-11
6.62252e-11
5.80199e-11
5.06532e-11
4.4067e-11
3.82031e-11
3.30037e-11
2.84123e-11
2.43743e-11
2.08372e-11
1.77512e-11
1.50696e-11
1.27486e-11
1.07475e-11
9.02897e-12
7.55889e-12
6.30619e-12
5.24283e-12
4.34366e-12
3.58623e-12
2.95063e-12
2.41927e-12
1.97674e-12
1.60958e-12
1.30608e-12
1.05616e-12
8.51112e-13
6.8351e-13
5.47022e-13
4.36282e-13
3.46764e-13
2.74666e-13
2.16811e-13
1.70555e-13
1.33708e-13
1.04462e-13
8.1333e-14
6.31084e-14
4.88e-14
3.76067e-14
2.88817e-14
2.21053e-14
1.68611e-14
1.28171e-14
9.70982e-15
7.33079e-15
5.51581e-15
4.13606e-15
3.09089e-15
2.30197e-15
1.70857e-15
1.2638e-15
9.3159e-16
6.84305e-16
5.00846e-16
3.65163e-16
2.65091e-16
1.91428e-16
1.37234e-16
9.72717e-17
6.75798e-17
4.51367e-17
2.75972e-17
1.30813e-17
0
0
1.72462e-17
3.63875e-17
5.95204e-17
8.91255e-17
1.28298e-16
1.81028e-16
2.52547e-16
3.49771e-16
4.81871e-16
6.61005e-16
9.03254e-16
1.22984e-15
1.66866e-15
2.25627e-15
3.04039e-15
4.08309e-15
5.46476e-15
7.28914e-15
9.68957e-15
1.28367e-14
1.69483e-14
2.23007e-14
2.92436e-14
3.82175e-14
4.97752e-14
6.46071e-14
8.35726e-14
1.07737e-13
1.38413e-13
1.77217e-13
2.26124e-13
2.8754e-13
3.64386e-13
4.60188e-13
5.79185e-13
7.26452e-13
9.08037e-13
1.13111e-12
1.40415e-12
1.7371e-12
2.14159e-12
2.63119e-12
3.22157e-12
3.93081e-12
4.77964e-12
5.7917e-12
6.99379e-12
8.41617e-12
1.00928e-11
1.20614e-11
1.43641e-11
1.70471e-11
2.0161e-11
2.37609e-11
2.79062e-11
3.26606e-11
3.8092e-11
4.42719e-11
5.1275e-11
5.91788e-11
6.80625e-11
7.80063e-11
8.90904e-11
1.01394e-10
1.14992e-10
1.29958e-10
1.46357e-10
1.64247e-10
1.83677e-10
2.04685e-10
2.27295e-10
2.51515e-10
2.77338e-10
3.04736e-10
3.33662e-10
3.64048e-10
3.95802e-10
4.28809e-10
4.6293e-10
4.98003e-10
5.33843e-10
5.70242e-10
6.06971e-10
6.43784e-10
6.80416e-10
7.16589e-10
7.52017e-10
7.86405e-10
8.19454e-10
8.50871e-10
8.80364e-10
9.07653e-10
9.32474e-10
9.5458e-10
9.73747e-10
9.8978e-10
1.00251e-09
1.01181e-09
1.01757e-09
1.01973e-09
1.01828e-09
1.01323e-09
1.00462e-09
9.92561e-10
9.77167e-10
9.58601e-10
9.37054e-10
9.12745e-10
8.85916e-10
8.56828e-10
8.25759e-10
7.92997e-10
7.58838e-10
7.23579e-10
6.87516e-10
6.50937e-10
6.14124e-10
5.77344e-10
5.40846e-10
5.04865e-10
4.69612e-10
4.35277e-10
4.02027e-10
3.70007e-10
3.39335e-10
3.10108e-10
2.82399e-10
2.5626e-10
2.31721e-10
2.08794e-10
1.87473e-10
1.67737e-10
1.49552e-10
1.32869e-10
1.17633e-10
1.03779e-10
9.12346e-11
7.99257e-11
6.97733e-11
6.06971e-11
5.26169e-11
4.54528e-11
3.91269e-11
3.35637e-11
2.86911e-11
2.44403e-11
2.07467e-11
1.755e-11
1.47941e-11
1.24276e-11
1.04034e-11
8.67865e-12
7.21469e-12
5.97687e-12
4.93427e-12
4.05942e-12
3.32812e-12
2.71913e-12
2.21389e-12
1.79631e-12
1.45246e-12
1.17038e-12
9.39827e-13
7.52093e-13
5.99789e-13
4.76682e-13
3.7754e-13
2.97991e-13
2.34396e-13
1.83741e-13
1.43539e-13
1.11749e-13
8.67017e-14
6.70384e-14
5.16574e-14
3.96693e-14
3.03593e-14
2.3155e-14
1.76e-14
1.33321e-14
1.00648e-14
7.57227e-15
5.67765e-15
4.24258e-15
3.15945e-15
2.34482e-15
1.73429e-15
1.2783e-15
9.38912e-16
6.87141e-16
5.00953e-16
3.63641e-16
2.62575e-16
1.88227e-16
1.33408e-16
9.26807e-17
6.18993e-17
3.78452e-17
1.79389e-17
0
0
2.35509e-17
4.969e-17
8.12817e-17
1.21715e-16
1.75221e-16
2.47251e-16
3.44954e-16
4.77786e-16
6.58282e-16
9.03063e-16
1.23412e-15
1.68046e-15
2.28024e-15
3.08346e-15
4.1554e-15
5.58094e-15
7.47007e-15
9.96472e-15
1.32473e-14
1.75515e-14
2.31751e-14
3.04966e-14
3.99945e-14
5.22719e-14
6.80856e-14
8.83812e-14
1.14335e-13
1.47407e-13
1.89395e-13
2.42513e-13
3.09466e-13
3.93552e-13
4.98773e-13
6.29961e-13
7.92927e-13
9.94627e-13
1.24335e-12
1.54894e-12
1.92299e-12
2.37917e-12
2.93343e-12
3.60436e-12
4.41347e-12
5.38557e-12
6.54909e-12
7.93647e-12
9.58451e-12
1.15347e-11
1.38337e-11
1.65334e-11
1.96914e-11
2.33713e-11
2.76426e-11
3.25808e-11
3.82677e-11
4.47909e-11
5.22435e-11
6.07237e-11
7.03343e-11
8.11817e-11
9.3375e-11
1.07024e-10
1.2224e-10
1.3913e-10
1.578e-10
1.78349e-10
2.00866e-10
2.25433e-10
2.52117e-10
2.80969e-10
3.12023e-10
3.45291e-10
3.80762e-10
4.184e-10
4.58139e-10
4.99885e-10
5.43513e-10
5.88865e-10
6.3575e-10
6.83946e-10
7.33197e-10
7.83219e-10
8.33698e-10
8.84292e-10
9.34641e-10
9.84361e-10
1.03306e-09
1.08033e-09
1.12576e-09
1.16895e-09
1.20949e-09
1.24701e-09
1.28114e-09
1.31153e-09
1.33788e-09
1.35993e-09
1.37744e-09
1.39022e-09
1.39815e-09
1.40113e-09
1.39914e-09
1.3922e-09
1.38037e-09
1.3638e-09
1.34264e-09
1.31712e-09
1.2875e-09
1.25409e-09
1.21721e-09
1.17723e-09
1.13452e-09
1.08949e-09
1.04254e-09
9.94076e-10
9.44508e-10
8.94234e-10
8.43638e-10
7.93088e-10
7.42928e-10
6.9348e-10
6.45034e-10
5.97851e-10
5.52162e-10
5.08163e-10
4.66019e-10
4.25862e-10
3.87792e-10
3.51881e-10
3.1817e-10
2.86675e-10
2.57388e-10
2.3028e-10
2.05302e-10
1.82391e-10
1.61467e-10
1.42441e-10
1.25216e-10
1.09688e-10
9.57492e-11
8.32888e-11
7.21962e-11
6.23621e-11
5.36791e-11
4.60437e-11
3.93565e-11
3.35231e-11
2.84548e-11
2.40686e-11
2.02876e-11
1.70411e-11
1.42643e-11
1.18986e-11
9.89067e-12
8.1931e-12
6.76335e-12
5.56376e-12
4.56109e-12
3.72618e-12
3.03358e-12
2.46118e-12
1.98989e-12
1.6033e-12
1.28736e-12
1.03012e-12
8.21444e-13
6.52787e-13
5.16975e-13
4.08012e-13
3.2091e-13
2.51536e-13
1.96484e-13
1.52955e-13
1.18662e-13
9.17425e-14
7.06874e-14
5.42785e-14
4.15363e-14
3.1677e-14
2.40755e-14
1.82358e-14
1.37655e-14
1.03557e-14
7.76402e-15
5.80113e-15
4.31975e-15
3.20569e-15
2.37082e-15
1.74733e-15
1.28331e-15
9.39118e-16
6.84602e-16
4.96914e-16
3.58782e-16
2.57176e-16
1.82265e-16
1.26617e-16
8.45611e-17
5.16995e-17
2.45059e-17
0
0
3.20443e-17
6.76105e-17
1.10598e-16
1.65622e-16
2.38441e-16
3.36478e-16
4.69472e-16
6.50297e-16
8.96031e-16
1.22931e-15
1.6801e-15
2.28791e-15
3.10475e-15
4.19874e-15
5.65885e-15
7.60078e-15
1.01745e-14
1.35734e-14
1.80463e-14
2.39117e-14
3.15758e-14
4.15547e-14
5.45012e-14
7.1238e-14
9.27975e-14
1.2047e-13
1.55861e-13
2.00961e-13
2.58226e-13
3.30677e-13
4.22007e-13
5.36719e-13
6.80277e-13
8.5928e-13
1.08166e-12
1.35693e-12
1.6964e-12
2.11352e-12
2.62415e-12
3.24694e-12
4.0037e-12
4.91983e-12
6.02476e-12
7.35238e-12
8.94157e-12
1.08367e-11
1.30881e-11
1.57525e-11
1.88936e-11
2.25827e-11
2.68983e-11
3.19276e-11
3.77655e-11
4.45157e-11
5.22898e-11
6.12079e-11
7.13974e-11
8.29929e-11
9.61351e-11
1.1097e-10
1.27646e-10
1.46315e-10
1.67128e-10
1.90234e-10
2.15776e-10
2.43889e-10
2.74699e-10
3.08315e-10
3.44831e-10
3.84316e-10
4.26817e-10
4.7235e-10
5.20903e-10
5.72423e-10
6.26823e-10
6.83974e-10
7.43704e-10
8.05797e-10
8.69993e-10
9.35987e-10
1.00343e-09
1.07193e-09
1.14106e-09
1.21035e-09
1.27931e-09
1.34741e-09
1.41411e-09
1.47885e-09
1.54109e-09
1.60025e-09
1.65579e-09
1.70719e-09
1.75394e-09
1.79558e-09
1.83169e-09
1.86189e-09
1.88588e-09
1.9034e-09
1.91427e-09
1.91836e-09
1.91565e-09
1.90614e-09
1.88995e-09
1.86725e-09
1.83827e-09
1.80332e-09
1.76276e-09
1.71699e-09
1.66648e-09
1.61171e-09
1.55322e-09
1.49154e-09
1.42724e-09
1.36086e-09
1.29297e-09
1.22412e-09
1.15482e-09
1.08559e-09
1.0169e-09
9.49187e-10
8.82846e-10
8.18238e-10
7.55676e-10
6.95432e-10
6.3773e-10
5.82751e-10
5.30632e-10
4.8147e-10
4.35322e-10
3.92211e-10
3.52124e-10
3.15021e-10
2.80837e-10
2.49481e-10
2.20847e-10
1.94813e-10
1.71245e-10
1.49999e-10
1.30929e-10
1.13883e-10
9.87094e-11
8.52579e-11
7.33821e-11
6.29396e-11
5.37947e-11
4.5818e-11
3.88879e-11
3.2891e-11
2.7722e-11
2.3284e-11
1.94885e-11
1.6255e-11
1.35109e-11
1.11911e-11
9.23741e-12
7.59839e-12
6.22854e-12
5.08798e-12
4.14191e-12
3.3601e-12
2.71645e-12
2.18852e-12
1.75711e-12
1.40589e-12
1.12099e-12
8.90756e-13
7.05373e-13
5.56654e-13
4.37782e-13
3.43114e-13
2.67995e-13
2.08606e-13
1.61821e-13
1.251e-13
9.63811e-14
7.40014e-14
5.66243e-14
4.31799e-14
3.28153e-14
2.48536e-14
1.87595e-14
1.41114e-14
1.05789e-14
7.9037e-15
5.88492e-15
4.36684e-15
3.2293e-15
2.37986e-15
1.74773e-15
1.27887e-15
9.32204e-16
6.76583e-16
4.88472e-16
3.50114e-16
2.48117e-16
1.72354e-16
1.15102e-16
7.03706e-17
3.3356e-17
0
0
4.34481e-17
9.16718e-17
1.49961e-16
2.24578e-16
3.23334e-16
4.56305e-16
6.36702e-16
8.82002e-16
1.21538e-15
1.66757e-15
2.27924e-15
3.10406e-15
4.21263e-15
5.69745e-15
7.67937e-15
1.03155e-14
1.38096e-14
1.84244e-14
2.4498e-14
3.2463e-14
4.28717e-14
5.64253e-14
7.40111e-14
9.67476e-14
1.26038e-13
1.63637e-13
2.11728e-13
2.73018e-13
3.50848e-13
4.49324e-13
5.73475e-13
7.29425e-13
9.24608e-13
1.168e-12
1.47042e-12
1.84478e-12
2.3065e-12
2.87388e-12
3.56853e-12
4.41583e-12
5.4455e-12
6.69214e-12
8.1958e-12
1.00027e-11
1.21658e-11
1.47455e-11
1.78105e-11
2.1438e-11
2.57151e-11
3.07385e-11
3.66158e-11
4.34654e-11
5.14171e-11
6.06121e-11
7.12029e-11
8.3353e-11
9.72365e-11
1.13037e-10
1.30946e-10
1.51164e-10
1.73893e-10
1.9934e-10
2.27712e-10
2.59211e-10
2.94033e-10
3.32364e-10
3.74375e-10
4.20215e-10
4.70012e-10
5.23862e-10
5.81829e-10
6.43936e-10
7.10164e-10
7.80445e-10
8.54659e-10
9.32629e-10
1.01412e-09
1.09885e-09
1.18644e-09
1.2765e-09
1.36853e-09