# vtk DataFile Version 3.0
2D field
ASCII
DATASET STRUCTURED_POINTS
DIMENSIONS 201 201 1
ORIGIN 0 0 0
SPACING 0.005 0.005 1
POINT_DATA 40401
SCALARS temperature double 1
LOOKUP_TABLE default
0
0
0
0
0
0
0
0
0
0
0
0
0
0
0
0
0
0
0
0
0
0
0
0
0
0
0
0
0
0
0
0
0
0
0
0
0
0
0
0
0
0
0
0
0
0
0
0
0
0
0
0
0
0
0
0
0
0
0
0
0
0
0
0
0
0
0
0
0
0
0
0
0
0
0
0
0
0
0
0
0
0
0
0
0
0
0
0
0
0
0
0
0
0
0
0
0
0
0
0
0
0
0
0
0
0
0
0
0
0
0
0
0
0
0
0
0
0
0
0
0
0
0
0
0
0
0
0
0
0
0
0
0
0
0
0
0
0
0
0
0
0
0
0
0
0
0
0
0
0
0
0
0
0
0
0
0
0
0
0
0
0
0
0
0
0
0
0
0
0
0
0
0
0
0
0
0
0
0
0
0
0
0
0
0
0
0
0
0
0
0
0
0
0
0
0
0
0
0
0
0
0
2.26011e-22
3.35152e-22
4.95014e-22
7.28207e-22
1.06698e-21
1.55711e-21
2.26331e-21
3.27668e-21
4.72482e-21
6.78579e-21
9.70683e-21
1.38299e-20
1.96255e-20
2.77387e-20
3.90495e-20
5.47529e-20
7.64648e-20
1.0636e-19
1.47353e-19
2.0333e-19
2.79452e-19
3.82539e-19
5.21563e-19
7.08273e-19
9.57983e-19
1.29056e-18
1.73165e-18
2.31423e-18
3.08045e-18
4.08399e-18
5.39286e-18
7.09276e-18
9.29127e-18
1.21226e-17
1.57537e-17
2.03906e-17
2.6287e-17
3.37532e-17
4.31669e-17
5.49858e-17
6.9761e-17
8.81531e-17
1.10949e-16
1.39084e-16
1.73656e-16
2.15956e-16
2.67488e-16
3.29994e-16
4.05481e-16
4.96248e-16
6.04907e-16
7.34416e-16
8.88092e-16
1.06964e-15
1.28315e-15
1.53314e-15
1.82452e-15
2.16262e-15
2.55313e-15
3.00212e-15
3.51598e-15
4.10136e-15
4.76511e-15
5.51416e-15
6.35549e-15
7.29595e-15
8.34214e-15
9.50026e-15
1.0776e-14
1.21742e-14
1.3699e-14
1.53531e-14
1.71384e-14
1.90548e-14
2.1101e-14
2.32736e-14
2.55674e-14
2.79752e-14
3.04876e-14
3.30929e-14
3.57775e-14
3.85255e-14
4.13189e-14
4.41379e-14
4.69611e-14
4.97654e-14
5.25266e-14
5.52197e-14
5.78191e-14
6.02993e-14
6.26347e-14
6.48009e-14
6.67744e-14
6.85333e-14
7.00577e-14
7.13302e-14
7.23358e-14
7.30628e-14
7.35025e-14
7.36497e-14
7.35025e-14
7.30628e-14
7.23358e-14
7.13302e-14
7.00577e-14
6.85333e-14
6.67744e-14
6.48009e-14
6.26347e-14
6.02993e-14
5.78191e-14
5.52197e-14
5.25266e-14
4.97654e-14
4.69611e-14
4.41379e-14
4.13189e-14
3.85255e-14
3.57775e-14
3.30929e-14
3.04876e-14
2.79752e-14
2.55674e-14
2.32736e-14
2.1101e-14
1.90548e-14
1.71384e-14
1.53531e-14
1.3699e-14
1.21742e-14
1.0776e-14
9.50026e-15
8.34214e-15
7.29595e-15
6.35549e-15
5.51416e-15
4.76511e-15
4.10136e-15
3.51598e-15
3.00212e-15
2.55313e-15
2.16262e-15
1.82452e-15
1.53314e-15
1.28315e-15
1.06964e-15
8.88092e-16
7.34416e-16
6.04907e-16
4.96248e-16
4.05481e-16
3.29994e-16
2.67488e-16
2.15956e-16
1.73656e-16
1.39084e-16
1.10949e-16
8.81531e-17
6.9761e-17
5.49858e-17
4.31669e-17
3.37532e-17
2.6287e-17
2.03906e-17
1.57537e-17
1.21226e-17
9.29127e-18
7.09276e-18
5.39286e-18
4.08399e-18
3.08045e-18
2.31423e-18
1.73165e-18
1.29056e-18
9.57983e-19
7.08273e-19
5.21563e-19
3.82539e-19
2.79452e-19
2.0333e-19
1.47353e-19
1.0636e-19
7.64648e-20
5.47529e-20
3.90495e-20
2.77387e-20
1.96255e-20
1.38299e-20
9.70683e-21
6.78579e-21
4.72482e-21
3.27668e-21
2.26331e-21
1.55711e-21
1.06698e-21
7.28207e-22
4.95014e-22
3.35152e-22
2.26011e-22
0
0
3.35152e-22
4.96998e-22
7.34056e-22
1.07986e-21
1.58222e-21
2.30904e-21
3.35627e-21
4.85899e-21
7.00644e-21
1.00626e-20
1.43943e-20
2.05083e-20
2.91027e-20
4.11338e-20
5.79065e-20
8.11931e-20
1.1339e-19
1.57721e-19
2.1851e-19
3.01518e-19
4.14399e-19
5.67267e-19
7.73426e-19
1.0503e-18
1.42059e-18
1.91377e-18
2.56787e-18
3.43177e-18
4.568e-18
6.05615e-18
7.99707e-18
1.05179e-17
1.3778e-17
1.79767e-17
2.33612e-17
3.02373e-17
3.8981e-17
5.00526e-17
6.40123e-17
8.15385e-17
1.03449e-16
1.30722e-16
1.64527e-16
2.06247e-16
2.57514e-16
3.20241e-16
3.96658e-16
4.89349e-16
6.01289e-16
7.35886e-16
8.97017e-16
1.08907e-15
1.31695e-15
1.58617e-15
1.90279e-15
2.2735e-15
2.70559e-15
3.20695e-15
3.78604e-15
4.45185e-15
5.21386e-15
6.08192e-15
7.06618e-15
8.17695e-15
9.42457e-15
1.08192e-14
1.23706e-14
1.40879e-14
1.59797e-14
1.80531e-14
2.03142e-14
2.27672e-14
2.54145e-14
2.82564e-14
3.12907e-14
3.45124e-14
3.7914e-14
4.14845e-14
4.52101e-14
4.90735e-14
5.30545e-14
5.71294e-14
6.12718e-14
6.54522e-14
6.96386e-14
7.37971e-14
7.78917e-14
8.18853e-14
8.574e-14
8.94178e-14
9.28811e-14
9.60933e-14
9.90198e-14
1.01628e-13
1.03889e-13
1.05776e-13
1.07267e-13
1.08345e-13
1.08997e-13
1.09215e-13
1.08997e-13
1.08345e-13
1.07267e-13
1.05776e-13
1.03889e-13
1.01628e-13
9.90198e-14
9.60933e-14
9.28811e-14
8.94178e-14
8.574e-14
8.18853e-14
7.78917e-14
7.37971e-14
6.96386e-14
6.54522e-14
6.12718e-14
5.71294e-14
5.30545e-14
4.90735e-14
4.52101e-14
4.14845e-14
3.7914e-14
3.45124e-14
3.12907e-14
2.82564e-14
2.54145e-14
2.27672e-14
2.03142e-14
1.80531e-14
1.59797e-14
1.40879e-14
1.23706e-14
1.08192e-14
9.42457e-15
8.17695e-15
7.06618e-15
6.08192e-15
5.21386e-15
4.45185e-15
3.78604e-15
3.20695e-15
2.70559e-15
2.2735e-15
1.90279e-15
1.58617e-15
1.31695e-15
1.08907e-15
8.97017e-16
7.35886e-16
6.01289e-16
4.89349e-16
3.96658e-16
3.20241e-16
2.57514e-16
2.06247e-16
1.64527e-16
1.30722e-16
1.03449e-16
8.15385e-17
6.40123e-17
5.00526e-17
3.8981e-17
3.02373e-17
2.33612e-17
1.79767e-17
1.3778e-17
1.05179e-17
7.99707e-18
6.05615e-18
4.568e-18
3.43177e-18
2.56787e-18
1.91377e-18
1.42059e-18
1.0503e-18
7.73426e-19
5.67267e-19
4.14399e-19
3.01518e-19
2.1851e-19
1.57721e-19
1.1339e-19
8.11931e-20
5.79065e-20
4.11338e-20
2.91027e-20
2.05083e-20
1.43943e-20
1.00626e-20
7.00644e-21
4.85899e-21
3.35627e-21
2.30904e-21
1.58222e-21
1.07986e-21
7.34056e-22
4.96998e-22
3.35152e-22
0
0
4.95014e-22
7.34056e-22
1.08419e-21
1.59493e-21
2.33691e-21
3.4104e-21
4.95715e-21
7.17663e-21
1.03484e-20
1.48623e-20
2.12601e-20
3.02904e-20
4.29841e-20
6.07538e-20
8.55268e-20
1.19921e-19
1.67474e-19
2.32951e-19
3.22735e-19
4.45337e-19
6.1206e-19
8.37843e-19
1.14234e-18
1.55127e-18
2.09819e-18
2.8266e-18
3.79269e-18
5.06865e-18
6.74684e-18
8.94482e-18
1.18115e-17
1.55347e-17
2.03499e-17
2.65512e-17
3.4504e-17
4.46599e-17
5.75742e-17
7.39268e-17
9.45449e-17
1.20431e-16
1.52792e-16
1.93074e-16
2.43003e-16
3.04623e-16
3.80344e-16
4.7299e-16
5.85857e-16
7.22758e-16
8.88092e-16
1.08689e-15
1.32488e-15
1.60853e-15
1.94511e-15
2.34274e-15
2.81038e-15
3.35791e-15
3.9961e-15
4.7366e-15
5.5919e-15
6.5753e-15
7.70076e-15
8.98287e-15
1.04366e-14
1.20772e-14
1.39199e-14
1.59797e-14
1.82711e-14
2.08076e-14
2.36017e-14
2.66641e-14
3.00037e-14
3.36267e-14
3.75367e-14
4.17341e-14
4.62157e-14
5.09742e-14
5.59982e-14
6.12718e-14
6.67744e-14
7.24807e-14
7.83605e-14
8.43791e-14
9.04973e-14
9.66716e-14
1.02855e-13
1.08997e-13
1.15045e-13
1.20943e-13
1.26636e-13
1.32068e-13
1.37184e-13
1.41928e-13
1.4625e-13
1.50103e-13
1.53442e-13
1.56228e-13
1.58431e-13
1.60023e-13
1.60986e-13
1.61309e-13
1.60986e-13
1.60023e-13
1.58431e-13
1.56228e-13
1.53442e-13
1.50103e-13
1.4625e-13
1.41928e-13
1.37184e-13
1.32068e-13
1.26636e-13
1.20943e-13
1.15045e-13
1.08997e-13
1.02855e-13
9.66716e-14
9.04973e-14
8.43791e-14
7.83605e-14
7.24807e-14
6.67744e-14
6.12718e-14
5.59982e-14
5.09742e-14
4.62157e-14
4.17341e-14
3.75367e-14
3.36267e-14
3.00037e-14
2.66641e-14
2.36017e-14
2.08076e-14
1.82711e-14
1.59797e-14
1.39199e-14
1.20772e-14
1.04366e-14
8.98287e-15
7.70076e-15
6.5753e-15
5.5919e-15
4.7366e-15
3.9961e-15
3.35791e-15
2.81038e-15
2.34274e-15
1.94511e-15
1.60853e-15
1.32488e-15
1.08689e-15
8.88092e-16
7.22758e-16
5.85857e-16
4.7299e-16
3.80344e-16
3.04623e-16
2.43003e-16
1.93074e-16
1.52792e-16
1.20431e-16
9.45449e-17
7.39268e-17
5.75742e-17
4.46599e-17
3.4504e-17
2.65512e-17
2.03499e-17
1.55347e-17
1.18115e-17
8.94482e-18
6.74684e-18
5.06865e-18
3.79269e-18
2.8266e-18
2.09819e-18
1.55127e-18
1.14234e-18
8.37843e-19
6.1206e-19
4.45337e-19
3.22735e-19
2.32951e-19
1.67474e-19
1.19921e-19
8.55268e-20
6.07538e-20
4.29841e-20
3.02904e-20
2.12601e-20
1.48623e-20
1.03484e-20
7.17663e-21
4.95715e-21
3.4104e-21
2.33691e-21
1.59493e-21
1.08419e-21
7.34056e-22
4.95014e-22
0
0
7.28207e-22
1.07986e-21
1.59493e-21
2.34628e-21
3.43779e-21
5.01699e-21
7.29238e-21
1.05574e-20
1.52233e-20
2.18638e-20
3.12753e-20
4.45597e-20
6.32332e-20
8.9374e-20
1.25817e-19
1.76413e-19
2.46369e-19
3.42691e-19
4.7477e-19
6.55128e-19
9.00392e-19
1.23254e-18
1.68047e-18
2.28205e-18
3.08661e-18
4.15817e-18
5.57936e-18
7.45642e-18
9.92518e-18
1.31586e-17
1.73757e-17
2.28528e-17
2.99364e-17
3.90591e-17
5.07583e-17
6.56984e-17
8.46966e-17
1.08753e-16
1.39084e-16
1.77164e-16
2.24769e-16
2.84029e-16
3.57478e-16
4.48126e-16
5.59518e-16
6.95809e-16
8.61845e-16
1.06324e-15
1.30646e-15
1.59891e-15
1.94901e-15
2.36628e-15
2.86142e-15
3.44636e-15
4.13431e-15
4.93977e-15
5.87861e-15
6.96794e-15
8.22616e-15
9.67282e-15
1.13285e-14
1.32146e-14
1.53531e-14
1.77666e-14
2.04774e-14
2.35075e-14
2.68783e-14
3.06098e-14
3.47201e-14
3.92252e-14
4.41379e-14
4.94677e-14
5.52197e-14
6.13945e-14
6.79872e-14
7.49874e-14
8.23781e-14
9.0136e-14
9.82308e-14
1.06625e-13
1.15275e-13
1.24129e-13
1.33129e-13
1.42212e-13
1.51308e-13
1.60344e-13
1.6924e-13
1.77917e-13
1.86293e-13
1.94284e-13
2.01809e-13
2.08788e-13
2.15147e-13
2.20814e-13
2.25726e-13
2.29825e-13
2.33066e-13
2.35408e-13
2.36825e-13
2.37299e-13
2.36825e-13
2.35408e-13
2.33066e-13
2.29825e-13
2.25726e-13
2.20814e-13
2.15147e-13
2.08788e-13
2.01809e-13
1.94284e-13
1.86293e-13
1.77917e-13
1.6924e-13
1.60344e-13
1.51308e-13
1.42212e-13
1.33129e-13
1.24129e-13
1.15275e-13
1.06625e-13
9.82308e-14
9.0136e-14
8.23781e-14
7.49874e-14
6.79872e-14
6.13945e-14
5.52197e-14
4.94677e-14
4.41379e-14
3.92252e-14
3.47201e-14
3.06098e-14
2.68783e-14
2.35075e-14
2.04774e-14
1.77666e-14
1.53531e-14
1.32146e-14
1.13285e-14
9.67282e-15
8.22616e-15
6.96794e-15
5.87861e-15
4.93977e-15
4.13431e-15
3.44636e-15
2.86142e-15
2.36628e-15
1.94901e-15
1.59891e-15
1.30646e-15
1.06324e-15
8.61845e-16
6.95809e-16
5.59518e-16
4.48126e-16
3.57478e-16
2.84029e-16
2.24769e-16
1.77164e-16
1.39084e-16
1.08753e-16
8.46966e-17
6.56984e-17
5.07583e-17
3.90591e-17
2.99364e-17
2.28528e-17
1.73757e-17
1.31586e-17
9.92518e-18
7.45642e-18
5.57936e-18
4.15817e-18
3.08661e-18
2.28205e-18
1.68047e-18
1.23254e-18
9.00392e-19
6.55128e-19
4.7477e-19
3.42691e-19
2.46369e-19
1.76413e-19
1.25817e-19
8.9374e-20
6.32332e-20
4.45597e-20
3.12753e-20
2.18638e-20
1.52233e-20
1.05574e-20
7.29238e-21
5.01699e-21
3.43779e-21
2.34628e-21
1.59493e-21
1.07986e-21
7.28207e-22
0
0
1.06698e-21
1.58222e-21
2.33691e-21
3.43779e-21
5.0371e-21
7.35095e-21
1.06849e-20
1.54689e-20
2.23054e-20
3.2035e-20
4.5825e-20
6.52894e-20
9.26501e-20
1.30952e-19
1.84349e-19
2.58483e-19
3.60983e-19
5.02116e-19
6.95639e-19
9.59901e-19
1.31927e-18
1.80593e-18
2.46225e-18
3.34369e-18
4.52255e-18
6.0926e-18
8.17495e-18
1.09252e-17
1.45425e-17
1.92801e-17
2.54591e-17
3.34842e-17
4.38632e-17
5.72298e-17
7.43717e-17
9.62621e-17
1.24098e-16
1.59346e-16
2.03787e-16
2.59583e-16
3.29335e-16
4.16162e-16
5.23782e-16
6.566e-16
8.19812e-16
1.01951e-15
1.26279e-15
1.55787e-15
1.91424e-15
2.34274e-15
2.85571e-15
3.4671e-15
4.19259e-15
5.04965e-15
6.05764e-15
7.23782e-15
8.6134e-15
1.02095e-14
1.20531e-14
1.41727e-14
1.65986e-14
1.93621e-14
2.24956e-14
2.60318e-14
3.00037e-14
3.44435e-14
3.93824e-14
4.48498e-14
5.08724e-14
5.74733e-14
6.46714e-14
7.24807e-14
8.09086e-14
8.99559e-14
9.96157e-14
1.09872e-13
1.20701e-13
1.32068e-13
1.43929e-13
1.56228e-13
1.68902e-13
1.81875e-13
1.95062e-13
2.08371e-13
2.21699e-13
2.34938e-13
2.47973e-13
2.60687e-13
2.72958e-13
2.84667e-13
2.95692e-13
3.05919e-13
3.15235e-13
3.23539e-13
3.30736e-13
3.36743e-13
3.4149e-13
3.44922e-13
3.46998e-13
3.47693e-13
3.46998e-13
3.44922e-13
3.4149e-13
3.36743e-13
3.30736e-13
3.23539e-13
3.15235e-13
3.05919e-13
2.95692e-13
2.84667e-13
2.72958e-13
2.60687e-13
2.47973e-13
2.34938e-13
2.21699e-13
2.08371e-13
1.95062e-13
1.81875e-13
1.68902e-13
1.56228e-13
1.43929e-13
1.32068e-13
1.20701e-13
1.09872e-13
9.96157e-14
8.99559e-14
8.09086e-14
7.24807e-14
6.46714e-14
5.74733e-14
5.08724e-14
4.48498e-14
3.93824e-14
3.44435e-14
3.00037e-14
2.60318e-14
2.24956e-14
1.93621e-14
1.65986e-14
1.41727e-14
1.20531e-14
1.02095e-14
8.6134e-15
7.23782e-15
6.05764e-15
5.04965e-15
4.19259e-15
3.4671e-15
2.85571e-15
2.34274e-15
1.91424e-15
1.55787e-15
1.26279e-15
1.01951e-15
8.19812e-16
6.566e-16
5.23782e-16
4.16162e-16
3.29335e-16
2.59583e-16
2.03787e-16
1.59346e-16
1.24098e-16
9.62621e-17
7.43717e-17
5.72298e-17
4.38632e-17
3.34842e-17
2.54591e-17
1.92801e-17
1.45425e-17
1.09252e-17
8.17495e-18
6.0926e-18
4.52255e-18
3.34369e-18
2.46225e-18
1.80593e-18
1.31927e-18
9.59901e-19
6.95639e-19
5.02116e-19
3.60983e-19
2.58483e-19
1.84349e-19
1.30952e-19
9.26501e-20
6.52894e-20
4.5825e-20
3.2035e-20
2.23054e-20
1.54689e-20
1.06849e-20
7.35095e-21
5.0371e-21
3.43779e-21
2.33691e-21
1.58222e-21
1.06698e-21
0
0
1.55711e-21
2.30904e-21
3.4104e-21
5.01699e-21
7.35095e-21
1.07277e-20
1.55931e-20
2.25747e-20
3.25517e-20
4.67507e-20
6.68753e-20
9.5281e-20
1.3521e-19
1.91106e-19
2.69032e-19
3.77221e-19
5.26805e-19
7.32769e-19
1.01519e-18
1.40084e-18
1.92529e-18
2.63551e-18
3.59331e-18
4.87966e-18
6.60003e-18
8.89131e-18
1.19302e-17
1.59439e-17
2.12228e-17
2.81367e-17
3.71541e-17
4.88657e-17
6.40123e-17
8.35191e-17
1.08535e-16
1.40481e-16
1.81105e-16
2.32543e-16
2.97399e-16
3.78825e-16
4.80619e-16
6.07332e-16
7.64388e-16
9.58218e-16
1.1964e-15
1.48783e-15
1.84286e-15
2.2735e-15
2.79357e-15
3.4189e-15
4.16751e-15
5.05976e-15
6.11852e-15
7.36928e-15
8.84029e-15
1.05626e-14
1.25701e-14
1.48994e-14
1.75898e-14
2.06832e-14
2.42234e-14
2.82564e-14
3.28292e-14
3.79899e-14
4.37862e-14
5.02655e-14
5.74733e-14
6.54522e-14
7.42412e-14
8.38743e-14
9.43791e-14
1.05776e-13
1.18075e-13
1.31278e-13
1.45375e-13
1.60344e-13
1.76147e-13
1.92736e-13
2.10045e-13
2.27994e-13
2.4649e-13
2.65422e-13
2.84667e-13
3.04089e-13
3.23539e-13
3.42859e-13
3.61883e-13
3.80437e-13
3.98345e-13
4.15432e-13
4.31523e-13
4.46447e-13
4.60043e-13
4.72161e-13
4.82663e-13
4.9143e-13
4.98358e-13
5.03367e-13
5.06396e-13
5.0741e-13
5.06396e-13
5.03367e-13
4.98358e-13
4.9143e-13
4.82663e-13
4.72161e-13
4.60043e-13
4.46447e-13
4.31523e-13
4.15432e-13
3.98345e-13
3.80437e-13
3.61883e-13
3.42859e-13
3.23539e-13
3.04089e-13
2.84667e-13
2.65422e-13
2.4649e-13
2.27994e-13
2.10045e-13
1.92736e-13
1.76147e-13
1.60344e-13
1.45375e-13
1.31278e-13
1.18075e-13
1.05776e-13
9.43791e-14
8.38743e-14
7.42412e-14
6.54522e-14
5.74733e-14
5.02655e-14
4.37862e-14
3.79899e-14
3.28292e-14
2.82564e-14
2.42234e-14
2.06832e-14
1.75898e-14
1.48994e-14
1.25701e-14
1.05626e-14
8.84029e-15
7.36928e-15
6.11852e-15
5.05976e-15
4.16751e-15
3.4189e-15
2.79357e-15
2.2735e-15
1.84286e-15
1.48783e-15
1.1964e-15
9.58218e-16
7.64388e-16
6.07332e-16
4.80619e-16
3.78825e-16
2.97399e-16
2.32543e-16
1.81105e-16
1.40481e-16
1.08535e-16
8.35191e-17
6.40123e-17
4.88657e-17
3.71541e-17
2.81367e-17
2.12228e-17
1.59439e-17
1.19302e-17
8.89131e-18
6.60003e-18
4.87966e-18
3.59331e-18
2.63551e-18
1.92529e-18
1.40084e-18
1.01519e-18
7.32769e-19
5.26805e-19
3.77221e-19
2.69032e-19
1.91106e-19
1.3521e-19
9.5281e-20
6.68753e-20
4.67507e-20
3.25517e-20
2.25747e-20
1.55931e-20
1.07277e-20
7.35095e-21
5.01699e-21
3.4104e-21
2.30904e-21
1.55711e-21
0
0
2.26331e-21
3.35627e-21
4.95715e-21
7.29238e-21
1.06849e-20
1.55931e-20
2.26652e-20
3.28132e-20
4.73151e-20
6.79539e-20
9.72058e-20
1.38494e-19
1.96533e-19
2.7778e-19
3.91048e-19
5.48304e-19
7.6573e-19
1.06511e-18
1.47562e-18
2.03618e-18
2.79848e-18
3.8308e-18
5.22302e-18
7.09276e-18
9.5934e-18
1.29239e-17
1.7341e-17
2.3175e-17
3.08481e-17
4.08977e-17
5.40049e-17
7.10281e-17
9.30442e-17
1.21398e-16
1.5776e-16
2.04195e-16
2.63242e-16
3.3801e-16
4.32281e-16
5.50637e-16
6.98598e-16
8.82779e-16
1.11107e-15
1.3928e-15
1.73902e-15
2.16262e-15
2.67867e-15
3.30461e-15
4.06056e-15
4.9695e-15
6.05764e-15
7.35455e-15
8.89349e-15
1.07115e-14
1.28497e-14
1.53531e-14
1.82711e-14
2.16568e-14
2.55674e-14
3.00637e-14
3.52096e-14
4.10717e-14
4.77185e-14
5.52197e-14
6.36449e-14
7.30628e-14
8.35395e-14
9.51372e-14
1.07912e-13
1.21914e-13
1.37184e-13
1.53749e-13
1.71626e-13
1.90818e-13
2.11309e-13
2.33066e-13
2.56036e-13
2.80148e-13
3.05308e-13
3.31398e-13
3.58282e-13
3.858e-13
4.13774e-13
4.42004e-13
4.70276e-13
4.98358e-13
5.2601e-13
5.52979e-13
5.7901e-13
6.03846e-13
6.27234e-13
6.48927e-13
6.68689e-13
6.86303e-13
7.01569e-13
7.14312e-13
7.24383e-13
7.31663e-13
7.36066e-13
7.3754e-13
7.36066e-13
7.31663e-13
7.24383e-13
7.14312e-13
7.01569e-13
6.86303e-13
6.68689e-13
6.48927e-13
6.27234e-13
6.03846e-13
5.7901e-13
5.52979e-13
5.2601e-13
4.98358e-13
4.70276e-13
4.42004e-13
4.13774e-13
3.858e-13
3.58282e-13
3.31398e-13
3.05308e-13
2.80148e-13
2.56036e-13
2.33066e-13
2.11309e-13
1.90818e-13
1.71626e-13
1.53749e-13
1.37184e-13
1.21914e-13
1.07912e-13
9.51372e-14
8.35395e-14
7.30628e-14
6.36449e-14
5.52197e-14
4.77185e-14
4.10717e-14
3.52096e-14
3.00637e-14
2.55674e-14
2.16568e-14
1.82711e-14
1.53531e-14
1.28497e-14
1.07115e-14
8.89349e-15
7.35455e-15
6.05764e-15
4.9695e-15
4.06056e-15
3.30461e-15
2.67867e-15
2.16262e-15
1.73902e-15
1.3928e-15
1.11107e-15
8.82779e-16
6.98598e-16
5.50637e-16
4.32281e-16
3.3801e-16
2.63242e-16
2.04195e-16
1.5776e-16
1.21398e-16
9.30442e-17
7.10281e-17
5.40049e-17
4.08977e-17
3.08481e-17
2.3175e-17
1.7341e-17
1.29239e-17
9.5934e-18
7.09276e-18
5.22302e-18
3.8308e-18
2.79848e-18
2.03618e-18
1.47562e-18
1.06511e-18
7.6573e-19
5.48304e-19
3.91048e-19
2.7778e-19
1.96533e-19
1.38494e-19
9.72058e-20
6.79539e-20
4.73151e-20
3.28132e-20
2.26652e-20
1.55931e-20
1.06849e-20
7.29238e-21
4.95715e-21
3.35627e-21
2.26331e-21
0
0
3.27668e-21
4.85899e-21
7.17663e-21
1.05574e-20
1.54689e-20
2.25747e-20
3.28132e-20
4.75048e-20
6.84998e-20
9.83793e-20
1.40728e-19
2.00503e-19
2.84528e-19
4.02152e-19
5.66134e-19
7.93799e-19
1.10857e-18
1.54199e-18
2.1363e-18
2.94785e-18
4.05145e-18
5.54599e-18
7.56154e-18
1.02684e-17
1.38887e-17
1.87103e-17
2.51052e-17
3.35513e-17
4.46599e-17
5.92091e-17
7.81848e-17
1.0283e-16
1.34703e-16
1.75752e-16
2.28395e-16
2.9562e-16
3.81105e-16
4.89349e-16
6.25828e-16
7.97176e-16
1.01138e-15
1.27803e-15
1.60853e-15
2.01641e-15
2.51763e-15
3.1309e-15
3.878e-15
4.7842e-15
5.87861e-15
7.19452e-15
8.76985e-15
1.06474e-14
1.28754e-14
1.55074e-14
1.86029e-14
2.22273e-14
2.64517e-14
3.13533e-14
3.70149e-14
4.35243e-14
5.09742e-14
5.94609e-14
6.90838e-14
7.99435e-14
9.2141e-14
1.05776e-13
1.20943e-13
1.37733e-13
1.56228e-13
1.765e-13
1.98605e-13
2.22587e-13
2.48469e-13
2.76254e-13
3.05919e-13
3.37417e-13
3.70673e-13
4.05581e-13
4.42004e-13
4.79776e-13
5.18697e-13
5.58536e-13
5.99035e-13
6.39905e-13
6.80835e-13
7.21491e-13
7.61522e-13
8.00567e-13
8.38253e-13
8.74209e-13
9.08068e-13
9.39474e-13
9.68085e-13
9.93585e-13
1.01569e-12
1.03413e-12
1.04871e-12
1.05925e-12
1.06563e-12
1.06776e-12
1.06563e-12
1.05925e-12
1.04871e-12
1.03413e-12
1.01569e-12
9.93585e-13
9.68085e-13
9.39474e-13
9.08068e-13
8.74209e-13
8.38253e-13
8.00567e-13
7.61522e-13
7.21491e-13
6.80835e-13
6.39905e-13
5.99035e-13
5.58536e-13
5.18697e-13
4.79776e-13
4.42004e-13
4.05581e-13
3.70673e-13
3.37417e-13
3.05919e-13
2.76254e-13
2.48469e-13
2.22587e-13
1.98605e-13
1.765e-13
1.56228e-13
1.37733e-13
1.20943e-13
1.05776e-13
9.2141e-14
7.99435e-14
6.90838e-14
5.94609e-14
5.09742e-14
4.35243e-14
3.70149e-14
3.13533e-14
2.64517e-14
2.22273e-14
1.86029e-14
1.55074e-14
1.28754e-14
1.06474e-14
8.76985e-15
7.19452e-15
5.87861e-15
4.7842e-15
3.878e-15
3.1309e-15
2.51763e-15
2.01641e-15
1.60853e-15
1.27803e-15
1.01138e-15
7.97176e-16
6.25828e-16
4.89349e-16
3.81105e-16
2.9562e-16
2.28395e-16
1.75752e-16
1.34703e-16
1.0283e-16
7.81848e-17
5.92091e-17
4.46599e-17
3.35513e-17
2.51052e-17
1.87103e-17
1.38887e-17
1.02684e-17
7.56154e-18
5.54599e-18
4.05145e-18
2.94785e-18
2.1363e-18
1.54199e-18
1.10857e-18
7.93799e-19
5.66134e-19
4.02152e-19
2.84528e-19
2.00503e-19
1.40728e-19
9.83793e-20
6.84998e-20
4.75048e-20
3.28132e-20
2.25747e-20
1.54689e-20
1.05574e-20
7.17663e-21
4.85899e-21
3.27668e-21
0
0
4.72482e-21
7.00644e-21
1.03484e-20
1.52233e-20
2.23054e-20
3.25517e-20
4.73151e-20
6.84998e-20
9.87736e-20
1.41859e-19
2.02924e-19
2.89117e-19
4.10276e-19
5.79885e-19
8.16339e-19
1.14462e-18
1.59851e-18
2.22348e-18
3.08045e-18
4.25066e-18
5.84201e-18
7.99707e-18
1.09034e-17
1.48066e-17
2.00269e-17
2.69794e-17
3.62006e-17
4.83794e-17
6.43975e-17
8.53768e-17
1.12739e-16
1.48276e-16
1.94236e-16
2.53427e-16
3.29335e-16
4.26271e-16
5.49536e-16
7.05619e-16
9.02415e-16
1.14949e-15
1.45837e-15
1.84286e-15
2.31943e-15
2.90758e-15
3.63032e-15
4.51461e-15
5.5919e-15
6.89861e-15
8.47669e-15
1.03742e-14
1.26457e-14
1.53531e-14
1.85658e-14
2.2361e-14
2.68246e-14
3.20507e-14
3.81421e-14
4.52101e-14
5.33738e-14
6.27601e-14
7.35025e-14
8.574e-14
9.96157e-14
1.15275e-13
1.32863e-13
1.52524e-13
1.74394e-13
1.98605e-13
2.25275e-13
2.54505e-13
2.8638e-13
3.20961e-13
3.58282e-13
3.98345e-13
4.41121e-13
4.8654e-13
5.34494e-13
5.84829e-13
6.3735e-13
6.91816e-13
7.47938e-13
8.05384e-13
8.63781e-13
9.22714e-13
9.81733e-13
1.04036e-12
1.09808e-12
1.15438e-12
1.20872e-12
1.26057e-12
1.30939e-12
1.35468e-12
1.39593e-12
1.43271e-12
1.46457e-12
1.49117e-12
1.5122e-12
1.5274e-12
1.53659e-12
1.53966e-12
1.53659e-12
1.5274e-12
1.5122e-12
1.49117e-12
1.46457e-12
1.43271e-12
1.39593e-12
1.35468e-12
1.30939e-12
1.26057e-12
1.20872e-12
1.15438e-12
1.09808e-12
1.04036e-12
9.81733e-13
9.22714e-13
8.63781e-13
8.05384e-13
7.47938e-13
6.91816e-13
6.3735e-13
5.84829e-13
5.34494e-13
4.8654e-13
4.41121e-13
3.98345e-13
3.58282e-13
3.20961e-13
2.8638e-13
2.54505e-13
2.25275e-13
1.98605e-13
1.74394e-13
1.52524e-13
1.32863e-13
1.15275e-13
9.96157e-14
8.574e-14
7.35025e-14
6.27601e-14
5.33738e-14
4.52101e-14
3.81421e-14
3.20507e-14
2.68246e-14
2.2361e-14
1.85658e-14
1.53531e-14
1.26457e-14
1.03742e-14
8.47669e-15
6.89861e-15
5.5919e-15
4.51461e-15
3.63032e-15
2.90758e-15
2.31943e-15
1.84286e-15
1.45837e-15
1.14949e-15
9.02415e-16
7.05619e-16
5.49536e-16
4.26271e-16
3.29335e-16
2.53427e-16
1.94236e-16
1.48276e-16
1.12739e-16
8.53768e-17
6.43975e-17
4.83794e-17
3.62006e-17
2.69794e-17
2.00269e-17
1.48066e-17
1.09034e-17
7.99707e-18
5.84201e-18
4.25066e-18
3.08045e-18
2.22348e-18
1.59851e-18
1.14462e-18
8.16339e-19
5.79885e-19
4.10276e-19
2.89117e-19
2.02924e-19
1.41859e-19
9.87736e-20
6.84998e-20
4.73151e-20
3.25517e-20
2.23054e-20
1.52233e-20
1.03484e-20
7.00644e-21
4.72482e-21
0
0
6.78579e-21
1.00626e-20
1.48623e-20
2.18638e-20
3.2035e-20
4.67507e-20
6.79539e-20
9.83793e-20
1.41859e-19
2.03737e-19
2.91439e-19
4.15229e-19
5.89238e-19
8.32831e-19
1.17243e-18
1.64391e-18
2.29579e-18
3.19336e-18
4.42414e-18
6.1048e-18
8.39029e-18
1.14854e-17
1.56595e-17
2.12653e-17
2.87626e-17
3.87478e-17
5.19912e-17
6.94825e-17
9.24876e-17
1.22618e-16
1.61916e-16
2.12954e-16
2.78962e-16
3.63971e-16
4.7299e-16
6.1221e-16
7.89244e-16
1.01341e-15
1.29605e-15
1.6509e-15
2.09451e-15
2.64672e-15
3.33116e-15
4.17586e-15
5.21386e-15
6.48388e-15
8.03109e-15
9.90777e-15
1.21742e-14
1.48994e-14
1.81618e-14
2.20502e-14
2.66641e-14
3.21149e-14
3.85255e-14
4.60312e-14
5.47797e-14
6.49306e-14
7.66554e-14
9.0136e-14
1.05564e-13
1.2314e-13
1.43068e-13
1.65558e-13
1.90818e-13
2.19054e-13
2.50465e-13
2.85237e-13
3.23539e-13
3.6552e-13
4.11299e-13
4.60964e-13
5.14564e-13
5.72103e-13
6.33538e-13
6.98769e-13
7.67639e-13
8.39931e-13
9.15362e-13
9.93585e-13
1.07419e-12
1.15669e-12
1.24056e-12
1.3252e-12
1.40996e-12
1.49416e-12
1.57706e-12
1.65792e-12
1.73597e-12
1.81043e-12
1.88055e-12
1.94559e-12
2.00484e-12
2.05765e-12
2.10342e-12
2.14162e-12
2.17182e-12
2.19364e-12
2.20685e-12
2.21126e-12
2.20685e-12
2.19364e-12
2.17182e-12
2.14162e-12
2.10342e-12
2.05765e-12
2.00484e-12
1.94559e-12
1.88055e-12
1.81043e-12
1.73597e-12
1.65792e-12
1.57706e-12
1.49416e-12
1.40996e-12
1.3252e-12
1.24056e-12
1.15669e-12
1.07419e-12
9.93585e-13
9.15362e-13
8.39931e-13
7.67639e-13
6.98769e-13
6.33538e-13
5.72103e-13
5.14564e-13
4.60964e-13
4.11299e-13
3.6552e-13
3.23539e-13
2.85237e-13
2.50465e-13
2.19054e-13
1.90818e-13
1.65558e-13
1.43068e-13
1.2314e-13
1.05564e-13
9.0136e-14
7.66554e-14
6.49306e-14
5.47797e-14
4.60312e-14
3.85255e-14
3.21149e-14
2.66641e-14
2.20502e-14
1.81618e-14
1.48994e-14
1.21742e-14
9.90777e-15
8.03109e-15
6.48388e-15
5.21386e-15
4.17586e-15
3.33116e-15
2.64672e-15
2.09451e-15
1.6509e-15
1.29605e-15
1.01341e-15
7.89244e-16
6.1221e-16
4.7299e-16
3.63971e-16
2.78962e-16
2.12954e-16
1.61916e-16
1.22618e-16
9.24876e-17
6.94825e-17
5.19912e-17
3.87478e-17
2.87626e-17
2.12653e-17
1.56595e-17
1.14854e-17
8.39029e-18
6.1048e-18
4.42414e-18
3.19336e-18
2.29579e-18
1.64391e-18
1.17243e-18
8.32831e-19
5.89238e-19
4.15229e-19
2.91439e-19
2.03737e-19
1.41859e-19
9.83793e-20
6.79539e-20
4.67507e-20
3.2035e-20
2.18638e-20
1.48623e-20
1.00626e-20
6.78579e-21
0
0
9.70683e-21
1.43943e-20
2.12601e-20
3.12753e-20
4.5825e-20
6.68753e-20
9.72058e-20
1.40728e-19
2.02924e-19
2.91439e-19
4.16893e-19
5.93971e-19
8.42885e-19
1.19134e-18
1.67711e-18
2.35155e-18
3.28404e-18
4.568e-18
6.32857e-18
8.7327e-18
1.2002e-17
1.64294e-17
2.24003e-17
3.04192e-17
4.11439e-17
5.54274e-17
7.43717e-17
9.93923e-17
1.323e-16
1.75401e-16
2.31615e-16
3.04623e-16
3.99045e-16
5.20648e-16
6.76596e-16
8.75745e-16
1.12899e-15
1.44965e-15
1.85395e-15
2.36155e-15
2.99612e-15
3.78604e-15
4.76511e-15
5.97342e-15
7.45824e-15
9.27497e-15
1.14882e-14
1.41727e-14
1.74148e-14
2.13131e-14
2.59798e-14
3.1542e-14
3.81421e-14
4.59392e-14
5.51094e-14
6.58461e-14
7.83605e-14
9.28811e-14
1.09653e-13
1.28936e-13
1.51006e-13
1.76147e-13
2.04654e-13
2.36825e-13
2.72958e-13
3.1335e-13
3.58282e-13
4.08021e-13
4.62811e-13
5.22863e-13
5.88349e-13
6.59393e-13
7.36066e-13
8.18374e-13
9.06254e-13
9.99564e-13
1.09808e-12
1.20149e-12
1.30939e-12
1.42129e-12
1.53659e-12
1.65461e-12
1.77458e-12
1.89565e-12
2.01691e-12
2.13734e-12
2.25593e-12
2.3716e-12
2.48324e-12
2.58976e-12
2.69006e-12
2.7831e-12
2.86786e-12
2.9434e-12
3.00887e-12
3.06352e-12
3.10671e-12
3.13793e-12
3.15682e-12
3.16314e-12
3.15682e-12
3.13793e-12
3.10671e-12
3.06352e-12
3.00887e-12
2.9434e-12
2.86786e-12
2.7831e-12
2.69006e-12
2.58976e-12
2.48324e-12
2.3716e-12
2.25593e-12
2.13734e-12
2.01691e-12
1.89565e-12
1.77458e-12
1.65461e-12
1.53659e-12
1.42129e-12
1.30939e-12
1.20149e-12
1.09808e-12
9.99564e-13
9.06254e-13
8.18374e-13
7.36066e-13
6.59393e-13
5.88349e-13
5.22863e-13
4.62811e-13
4.08021e-13
3.58282e-13
3.1335e-13
2.72958e-13
2.36825e-13
2.04654e-13
1.76147e-13
1.51006e-13
1.28936e-13
1.09653e-13
9.28811e-14
7.83605e-14
6.58461e-14
5.51094e-14
4.59392e-14
3.81421e-14
3.1542e-14
2.59798e-14
2.13131e-14
1.74148e-14
1.41727e-14
1.14882e-14
9.27497e-15
7.45824e-15
5.97342e-15
4.76511e-15
3.78604e-15
2.99612e-15
2.36155e-15
1.85395e-15
1.44965e-15
1.12899e-15
8.75745e-16
6.76596e-16
5.20648e-16
3.99045e-16
3.04623e-16
2.31615e-16
1.75401e-16
1.323e-16
9.93923e-17
7.43717e-17
5.54274e-17
4.11439e-17
3.04192e-17
2.24003e-17
1.64294e-17
1.2002e-17
8.7327e-18
6.32857e-18
4.568e-18
3.28404e-18
2.35155e-18
1.67711e-18
1.19134e-18
8.42885e-19
5.93971e-19
4.16893e-19
2.91439e-19
2.02924e-19
1.40728e-19
9.72058e-20
6.68753e-20
4.5825e-20
3.12753e-20
2.12601e-20
1.43943e-20
9.70683e-21
0
0
1.38299e-20
2.05083e-20
3.02904e-20
4.45597e-20
6.52894e-20
9.5281e-20
1.38494e-19
2.00503e-19
2.89117e-19
4.15229e-19
5.93971e-19
8.46263e-19
1.2009e-18
1.69736e-18
2.38948e-18
3.35038e-18
4.67896e-18
6.50828e-18
9.01667e-18
1.2442e-17
1.70999e-17
2.34079e-17
3.1915e-17
4.334e-17
5.86199e-17
7.89705e-17
1.05961e-16
1.4161e-16
1.88496e-16
2.49904e-16
3.29994e-16
4.34013e-16
5.68542e-16
7.41796e-16
9.63984e-16
1.24772e-15
1.60853e-15
2.06539e-15
2.64143e-15
3.36464e-15
4.26874e-15
5.39417e-15
6.78911e-15
8.51066e-15
1.06262e-14
1.32146e-14
1.63679e-14
2.01927e-14
2.48118e-14
3.03659e-14
3.70149e-14
4.49396e-14
5.43432e-14
6.54522e-14
7.85174e-14
9.38145e-14
1.11644e-13
1.32333e-13
1.56228e-13
1.83703e-13
2.15147e-13
2.50967e-13
2.91582e-13
3.37417e-13
3.88899e-13
4.46447e-13
5.10464e-13
5.81331e-13
6.59393e-13
7.44952e-13
8.38253e-13
9.39474e-13
1.04871e-12
1.16598e-12
1.29119e-12
1.42413e-12
1.5645e-12
1.71183e-12
1.86557e-12
2.02499e-12
2.18926e-12
2.35741e-12
2.52834e-12
2.70084e-12
2.8736e-12
3.04519e-12
3.21415e-12
3.37895e-12
3.53801e-12
3.68977e-12
3.83268e-12
3.96523e-12
4.08599e-12
4.19362e-12
4.2869e-12
4.36477e-12
4.4263e-12
4.47079e-12
4.49769e-12
4.5067e-12
4.49769e-12
4.47079e-12
4.4263e-12
4.36477e-12
4.2869e-12
4.19362e-12
4.08599e-12
3.96523e-12
3.83268e-12
3.68977e-12
3.53801e-12
3.37895e-12
3.21415e-12
3.04519e-12
2.8736e-12
2.70084e-12
2.52834e-12
2.35741e-12
2.18926e-12
2.02499e-12
1.86557e-12
1.71183e-12
1.5645e-12
1.42413e-12
1.29119e-12
1.16598e-12
1.04871e-12
9.39474e-13
8.38253e-13
7.44952e-13
6.59393e-13
5.81331e-13
5.10464e-13
4.46447e-13
3.88899e-13
3.37417e-13
2.91582e-13
2.50967e-13
2.15147e-13
1.83703e-13
1.56228e-13
1.32333e-13
1.11644e-13
9.38145e-14
7.85174e-14
6.54522e-14
5.43432e-14
4.49396e-14
3.70149e-14
3.03659e-14
2.48118e-14
2.01927e-14
1.63679e-14
1.32146e-14
1.06262e-14
8.51066e-15
6.78911e-15
5.39417e-15
4.26874e-15
3.36464e-15
2.64143e-15
2.06539e-15
1.60853e-15
1.24772e-15
9.63984e-16
7.41796e-16
5.68542e-16
4.34013e-16
3.29994e-16
2.49904e-16
1.88496e-16
1.4161e-16
1.05961e-16
7.89705e-17
5.86199e-17
4.334e-17
3.1915e-17
2.34079e-17
1.70999e-17
1.2442e-17
9.01667e-18
6.50828e-18
4.67896e-18
3.35038e-18
2.38948e-18
1.69736e-18
1.2009e-18
8.46263e-19
5.93971e-19
4.15229e-19
2.89117e-19
2.00503e-19
1.38494e-19
9.5281e-20
6.52894e-20
4.45597e-20
3.02904e-20
2.05083e-20
1.38299e-20
0
0
1.96255e-20
2.91027e-20
4.29841e-20
6.32332e-20
9.26501e-20
1.3521e-19
1.96533e-19
2.84528e-19
4.10276e-19
5.89238e-19
8.42885e-19
1.2009e-18
1.70416e-18
2.40867e-18
3.39083e-18
4.75442e-18
6.63975e-18
9.23569e-18
1.27953e-17
1.7656e-17
2.4266e-17
3.32174e-17
4.52895e-17
6.15023e-17
8.31857e-17
1.12065e-16
1.50366e-16
2.00954e-16
2.67488e-16
3.5463e-16
4.68284e-16
6.15894e-16
8.06799e-16
1.05266e-15
1.36796e-15
1.7706e-15
2.28261e-15
2.93093e-15
3.74836e-15
4.77465e-15
6.05764e-15
7.6547e-15
9.6342e-15
1.20772e-14
1.50793e-14
1.87524e-14
2.32271e-14
2.86548e-14
3.52096e-14
4.30912e-14
5.25266e-14
6.37723e-14
7.71167e-14
9.28811e-14
1.11421e-13
1.33129e-13
1.58431e-13
1.87789e-13
2.21699e-13
2.60687e-13
3.05308e-13
3.56138e-13
4.13774e-13
4.78818e-13
5.51874e-13
6.33538e-13
7.24383e-13
8.24947e-13
9.35723e-13
1.05714e-12
1.18954e-12
1.33318e-12
1.4882e-12
1.65461e-12
1.83229e-12
2.02094e-12
2.22013e-12
2.42921e-12