# vtk DataFile Version 3.0
2D field
ASCII
DATASET STRUCTURED_POINTS
DIMENSIONS 201 201 1
ORIGIN 0 0 0
SPACING 0.005 0.005 1
POINT_DATA 40401
SCALARS temperature double 1
LOOKUP_TABLE default
0
0
0
0
0
0
0
0
0
0
0
0
0
0
0
0
0
0
0
0
0
0
0
0
0
0
0
0
0
0
0
0
0
0
0
0
0
0
0
0
0
0
0
0
0
0
0
0
0
0
0
0
0
0
0
0
0
0
0
0
0
0
0
0
0
0
0
0
0
0
0
0
0
0
0
0
0
0
0
0
0
0
0
0
0
0
0
0
0
0
0
0
0
0
0
0
0
0
0
0
0
0
0
0
0
0
0
0
0
0
0
0
0
0
0
0
0
0
0
0
0
0
0
0
0
0
0
0
0
0
0
0
0
0
0
0
0
0
0
0
0
0
0
0
0
0
0
0
0
0
0
0
0
0
0
0
0
0
0
0
0
0
0
0
0
0
0
0
0
0
0
0
0
0
0
0
0
0
0
0
0
0
0
0
0
0
0
0
0
0
0
0
0
0
0
0
0
0
0
0
0
0
2.41302e-16
4.99859e-16
7.93957e-16
1.14399e-15
1.57366e-15
2.11125e-15
2.79123e-15
3.65604e-15
4.75819e-15
6.16295e-15
7.95131e-15
1.02238e-14
1.3105e-14
1.67485e-14
2.1344e-14
2.7124e-14
3.43737e-14
4.34407e-14
5.47484e-14
6.88098e-14
8.62452e-14
1.07802e-13
1.34376e-13
1.67041e-13
2.07075e-13
2.55999e-13
3.1561e-13
3.88032e-13
4.75757e-13
5.81706e-13
7.09288e-13
8.62464e-13
1.04582e-12
1.26466e-12
1.52505e-12
1.83397e-12
2.19936e-12
2.63022e-12
3.13677e-12
3.73049e-12
4.42425e-12
5.23243e-12
6.17101e-12
7.25768e-12
8.5119e-12
9.95499e-12
1.16102e-11
1.35028e-11
1.56599e-11
1.81108e-11
2.08865e-11
2.40199e-11
2.75459e-11
3.15006e-11
3.59217e-11
4.08479e-11
4.63186e-11
5.23738e-11
5.90531e-11
6.63959e-11
7.44404e-11
8.32229e-11
9.27777e-11
1.03136e-10
1.14324e-10
1.26366e-10
1.39278e-10
1.53072e-10
1.67751e-10
1.83314e-10
1.99747e-10
2.17031e-10
2.35135e-10
2.54019e-10
2.73632e-10
2.93913e-10
3.1479e-10
3.36179e-10
3.57989e-10
3.80115e-10
4.02445e-10
4.24857e-10
4.47222e-10
4.69405e-10
4.91263e-10
5.12651e-10
5.33422e-10
5.53427e-10
5.72519e-10
5.90551e-10
6.07385e-10
6.22886e-10
6.36927e-10
6.49394e-10
6.60181e-10
6.69197e-10
6.76364e-10
6.8162e-10
6.8492e-10
6.86234e-10
6.8555e-10
6.82875e-10
6.78232e-10
6.7166e-10
6.63218e-10
6.52976e-10
6.41023e-10
6.27459e-10
6.12396e-10
5.95958e-10
5.78275e-10
5.59487e-10
5.39737e-10
5.19173e-10
4.97944e-10
4.76197e-10
4.5408e-10
4.31735e-10
4.09301e-10
3.8691e-10
3.64685e-10
3.42744e-10
3.21192e-10
3.00126e-10
2.79633e-10
2.59788e-10
2.40656e-10
2.22291e-10
2.04737e-10
1.88028e-10
1.72186e-10
1.57227e-10
1.43156e-10
1.29971e-10
1.17662e-10
1.06215e-10
9.56077e-11
8.58141e-11
7.68041e-11
6.85444e-11
6.09989e-11
5.41297e-11
4.78977e-11
4.22629e-11
3.71854e-11
3.26252e-11
2.85433e-11
2.49016e-11
2.16631e-11
1.87927e-11
1.62567e-11
1.40233e-11
1.20627e-11
1.03471e-11
8.8506e-12
7.54929e-12
6.42128e-12
5.44653e-12
4.60682e-12
3.88569e-12
3.2683e-12
2.74133e-12
2.29293e-12
1.91253e-12
1.5908e-12
1.31952e-12
1.09145e-12
9.00306e-13
7.40574e-13
6.07494e-13
4.96949e-13
4.05394e-13
3.29793e-13
2.67549e-13
2.16454e-13
1.74633e-13
1.40504e-13
1.12734e-13
9.02028e-14
7.19761e-14
5.72741e-14
4.54496e-14
3.59668e-14
2.83837e-14
2.23371e-14
1.75291e-14
1.37167e-14
1.07017e-14
8.32346e-15
6.45171e-15
4.98135e-15
3.82765e-15
2.92235e-15
2.21048e-15
1.64766e-15
1.19781e-15
8.31318e-16
5.23386e-16
2.52661e-16
0
0
4.99826e-16
1.0354e-15
1.6446e-15
2.3697e-15
3.25976e-15
4.37343e-15
5.78211e-15
7.57371e-15
9.8571e-15
1.27675e-14
1.64727e-14
2.11811e-14
2.71507e-14
3.47002e-14
4.42222e-14
5.61992e-14
7.12216e-14
9.00106e-14
1.13443e-13
1.42583e-13
1.78716e-13
2.23391e-13
2.78466e-13
3.46167e-13
4.29144e-13
5.30548e-13
6.54108e-13
8.04224e-13
9.86067e-13
1.20569e-12
1.47017e-12
1.78772e-12
2.16785e-12
2.62154e-12
3.16141e-12
3.8019e-12
4.55949e-12
5.45289e-12
6.50324e-12
7.73437e-12
9.17301e-12
1.0849e-11
1.27954e-11
1.50491e-11
1.76502e-11
2.06433e-11
2.40764e-11
2.80019e-11
3.24763e-11
3.75601e-11
4.33179e-11
4.98181e-11
5.71328e-11
6.53372e-11
7.45095e-11
8.47299e-11
9.60805e-11
1.08644e-10
1.22503e-10
1.37739e-10
1.54432e-10
1.72657e-10
1.92485e-10
2.1398e-10
2.37199e-10
2.6219e-10
2.88988e-10
3.17617e-10
3.48086e-10
3.80387e-10
4.14498e-10
4.50374e-10
4.87954e-10
5.27154e-10
5.67868e-10
6.0997e-10
6.53309e-10
6.97715e-10
7.42993e-10
7.8893e-10
8.3529e-10
8.81823e-10
9.28259e-10
9.74316e-10
1.0197e-09
1.06411e-09
1.10724e-09
1.14878e-09
1.18842e-09
1.22587e-09
1.26083e-09
1.29301e-09
1.32217e-09
1.34806e-09
1.37047e-09
1.38919e-09
1.40408e-09
1.41499e-09
1.42185e-09
1.42458e-09
1.42316e-09
1.41761e-09
1.40797e-09
1.39433e-09
1.3768e-09
1.35554e-09
1.33072e-09
1.30255e-09
1.27128e-09
1.23715e-09
1.20043e-09
1.16142e-09
1.12041e-09
1.07771e-09
1.03364e-09
9.88482e-10
9.42561e-10
8.96167e-10
8.49589e-10
8.031e-10
7.56958e-10
7.11404e-10
6.66659e-10
6.22925e-10
5.8038e-10
5.39182e-10
4.99464e-10
4.61341e-10
4.24901e-10
3.90215e-10
3.57331e-10
3.26279e-10
2.97072e-10
2.69704e-10
2.44157e-10
2.20398e-10
1.98383e-10
1.78057e-10
1.59358e-10
1.42216e-10
1.26558e-10
1.12303e-10
9.93705e-11
8.7678e-11
7.7142e-11
6.768e-11
5.92105e-11
5.16546e-11
4.49356e-11
3.89804e-11
3.37191e-11
2.90859e-11
2.50187e-11
2.14598e-11
1.83555e-11
1.56562e-11
1.33165e-11
1.12947e-11
9.55309e-12
8.05745e-12
6.77701e-12
5.68415e-12
4.75424e-12
3.96539e-12
3.29823e-12
2.73569e-12
2.2628e-12
1.86645e-12
1.53526e-12
1.25934e-12
1.03015e-12
8.4034e-13
6.83608e-13
5.54571e-13
4.48649e-13
3.61957e-13
2.91211e-13
2.33647e-13
1.86945e-13
1.49166e-13
1.18694e-13
9.41869e-14
7.45334e-14
5.88176e-14
4.62864e-14
3.63226e-14
2.84221e-14
2.21743e-14
1.72461e-14
1.33675e-14
1.03208e-14
7.93029e-15
6.05453e-15
4.57959e-15
3.41349e-15
2.4815e-15
1.72222e-15
1.08427e-15
5.23422e-16
0
0
7.93821e-16
1.64443e-15
2.61201e-15
3.76369e-15
5.17746e-15
6.94648e-15
9.18422e-15
1.20303e-14
1.56579e-14
2.02816e-14
2.61684e-14
3.36494e-14
4.31345e-14
5.51305e-14
7.02614e-14
8.92941e-14
1.13168e-13
1.43028e-13
1.8027e-13
2.26585e-13
2.84017e-13
3.55029e-13
4.42577e-13
5.50199e-13
6.82112e-13
8.43328e-13
1.03978e-12
1.27846e-12
1.5676e-12
1.91684e-12
2.33742e-12
2.84242e-12
3.44697e-12
4.16856e-12
5.02725e-12
6.04605e-12
7.25117e-12
8.67239e-12
1.03434e-11
1.23021e-11
1.45911e-11
1.72578e-11
2.03551e-11
2.39413e-11
2.80809e-11
3.28443e-11
3.83084e-11
4.45565e-11
5.16787e-11
5.97715e-11
6.89376e-11
7.92862e-11
9.0932e-11
1.03995e-10
1.186e-10
1.34875e-10
1.5295e-10
1.72958e-10
1.95031e-10
2.19298e-10
2.45886e-10
2.74917e-10
3.06502e-10
3.40745e-10
3.77737e-10
4.17553e-10
4.6025e-10
5.05867e-10
5.54417e-10
6.05891e-10
6.6025e-10
7.17425e-10
7.77318e-10
8.39795e-10
9.0469e-10
9.71798e-10
1.04088e-09
1.11167e-09
1.18385e-09
1.25708e-09
1.33099e-09
1.40518e-09
1.47922e-09
1.55265e-09
1.62502e-09
1.69584e-09
1.76461e-09
1.83085e-09
1.89407e-09
1.95379e-09
2.00954e-09
2.06087e-09
2.10738e-09
2.14867e-09
2.18441e-09
2.21427e-09
2.23802e-09
2.25544e-09
2.26638e-09
2.27074e-09
2.26849e-09
2.25965e-09
2.24428e-09
2.22253e-09
2.19458e-09
2.16068e-09
2.12111e-09
2.0762e-09
2.02633e-09
1.97191e-09
1.91336e-09
1.85116e-09
1.78577e-09
1.71769e-09
1.64741e-09
1.57541e-09
1.50219e-09
1.42822e-09
1.35396e-09
1.27984e-09
1.20628e-09
1.13365e-09
1.06232e-09
9.92602e-10
9.24781e-10
8.59108e-10
7.95799e-10
7.35032e-10
6.76951e-10
6.21667e-10
5.69258e-10
5.1977e-10
4.73224e-10
4.29612e-10
3.88902e-10
3.51044e-10
3.15965e-10
2.8358e-10
2.53788e-10
2.26479e-10
2.01534e-10
1.78826e-10
1.58226e-10
1.39602e-10
1.22821e-10
1.07751e-10
9.42626e-11
8.22297e-11
7.15303e-11
6.20476e-11
5.36703e-11
4.62934e-11
3.98181e-11
3.41523e-11
2.92106e-11
2.49138e-11
2.11895e-11
1.79715e-11
1.51996e-11
1.28193e-11
1.07816e-11
9.04255e-12
7.56285e-12
6.30767e-12
5.24618e-12
4.3512e-12
3.59888e-12
2.96837e-12
2.44154e-12
2.00265e-12
1.6381e-12
1.33621e-12
1.08694e-12
8.81735e-13
7.13293e-13
5.75438e-13
4.62946e-13
3.71419e-13
2.97166e-13
2.37103e-13
1.88659e-13
1.497e-13
1.18458e-13
9.34764e-14
7.35581e-14
5.77214e-14
4.51647e-14
3.52352e-14
2.74031e-14
2.12395e-14
1.63981e-14
1.25995e-14
9.619e-15
7.2755e-15
5.4228e-15
3.9421e-15
2.73585e-15
1.72241e-15
8.31468e-16
0
0
1.14364e-15
2.36911e-15
3.76316e-15
5.42256e-15
7.45967e-15
1.00088e-14
1.32336e-14
1.73353e-14
2.25634e-14
2.92276e-14
3.77128e-14
4.84963e-14
6.21696e-14
7.94632e-14
1.01278e-13
1.28719e-13
1.63141e-13
2.06198e-13
2.59902e-13
3.26693e-13
4.09522e-13
5.11942e-13
6.38221e-13
7.93463e-13
9.83756e-13
1.21633e-12
1.49976e-12
1.84414e-12
2.26136e-12
2.76533e-12
3.37228e-12
4.10111e-12
4.97368e-12
6.01524e-12
7.25479e-12
8.72557e-12
1.04654e-11
1.25175e-11
1.49303e-11
1.77588e-11
2.10644e-11
2.49158e-11
2.93895e-11
3.45697e-11
4.05497e-11
4.74313e-11
5.53258e-11
6.43538e-11
7.46454e-11
8.63404e-11
9.95875e-11
1.14545e-10
1.31378e-10
1.50262e-10
1.71375e-10
1.94905e-10
2.21039e-10
2.49971e-10
2.81889e-10
3.16984e-10
3.55438e-10
3.97427e-10
4.43115e-10
4.92652e-10
5.46167e-10
6.03773e-10
6.65551e-10
7.31558e-10
8.01814e-10
8.76306e-10
9.54978e-10
1.03773e-09
1.12442e-09
1.21486e-09
1.3088e-09
1.40596e-09
1.50598e-09
1.60846e-09
1.71298e-09
1.81902e-09
1.92605e-09
2.03349e-09
2.14071e-09
2.24707e-09
2.35188e-09
2.45445e-09
2.55407e-09
2.65003e-09
2.74161e-09
2.82812e-09
2.90889e-09
2.98327e-09
3.05065e-09
3.11048e-09
3.16226e-09
3.20555e-09
3.23996e-09
3.26522e-09
3.28108e-09
3.28742e-09
3.28417e-09
3.27137e-09
3.24913e-09
3.21763e-09
3.17716e-09
3.12806e-09
3.07074e-09
3.0057e-09
2.93347e-09
2.85464e-09
2.76984e-09
2.67975e-09
2.58504e-09
2.48643e-09
2.38464e-09
2.28037e-09
2.17432e-09
2.0672e-09
1.95965e-09
1.85231e-09
1.74578e-09
1.64062e-09
1.53733e-09
1.43638e-09
1.33818e-09
1.2431e-09
1.15144e-09
1.06347e-09
9.79388e-10
8.99362e-10
8.23501e-10
7.51873e-10
6.84507e-10
6.21389e-10
5.62477e-10
5.07693e-10
4.56935e-10
4.10078e-10
3.66976e-10
3.27468e-10
2.91382e-10
2.58535e-10
2.28739e-10
2.01802e-10
1.77533e-10
1.5574e-10
1.36236e-10
1.18838e-10
1.03368e-10
8.96591e-11
7.75489e-11
6.68855e-11
5.75262e-11
4.93375e-11
4.21957e-11
3.59865e-11
3.0605e-11
2.59554e-11
2.19506e-11
1.85119e-11
1.55683e-11
1.30563e-11
1.09191e-11
9.10631e-12
7.57336e-12
6.28097e-12
5.19466e-12
4.28431e-12
3.5237e-12
2.8901e-12
2.36386e-12
1.9281e-12
1.56832e-12
1.27215e-12
1.02907e-12
8.30135e-13
6.67813e-13
5.35751e-13
4.28621e-13
3.41969e-13
2.72084e-13
2.15884e-13
1.7082e-13
1.34789e-13
1.06062e-13
8.32231e-14
6.51153e-14
5.07971e-14
3.95039e-14
3.06171e-14
2.36369e-14
1.81607e-14
1.3864e-14
1.04859e-14
7.81536e-15
5.68118e-15
3.94268e-15
2.48214e-15
1.1982e-15
0
0
1.57289e-15
3.25839e-15
5.17584e-15
7.4584e-15
1.02607e-14
1.37676e-14
1.82043e-14
2.38478e-14
3.10416e-14
4.02122e-14
5.18892e-14
6.67301e-14
8.55493e-14
1.09353e-13
1.39381e-13
1.77157e-13
2.24547e-13
2.83829e-13
3.57775e-13
4.49747e-13
5.63812e-13
7.04867e-13
8.78793e-13
1.09263e-12
1.35476e-12
1.67517e-12
2.06566e-12
2.54017e-12
3.11508e-12
3.80959e-12
4.64609e-12
5.65063e-12
6.8534e-12
8.28923e-12
9.99814e-12
1.2026e-11
1.44251e-11
1.72548e-11
2.05825e-11
2.44836e-11
2.90433e-11
3.43564e-11
4.05283e-11
4.76757e-11
5.59272e-11
6.54238e-11
7.63191e-11
8.87799e-11
1.02986e-10
1.19131e-10
1.3742e-10
1.58072e-10
1.81317e-10
2.07395e-10
2.36555e-10
2.69055e-10
3.05157e-10
3.45125e-10
3.89224e-10
4.37715e-10
4.90853e-10
5.48881e-10
6.12026e-10
6.80495e-10
7.54471e-10
8.34107e-10
9.19519e-10
1.01078e-09
1.10793e-09
1.21095e-09
1.31975e-09
1.43421e-09
1.55412e-09
1.67922e-09
1.80918e-09
1.94359e-09
2.08198e-09
2.22379e-09
2.36842e-09
2.51517e-09
2.66329e-09
2.81199e-09
2.9604e-09
3.10762e-09
3.25271e-09
3.39471e-09
3.53263e-09
3.66548e-09
3.79228e-09
3.91207e-09
4.02391e-09
4.12691e-09
4.22023e-09
4.3031e-09
4.37481e-09
4.43477e-09
4.48246e-09
4.51745e-09
4.53944e-09
4.54825e-09
4.54378e-09
4.52608e-09
4.4953e-09
4.45172e-09
4.3957e-09
4.32773e-09
4.2484e-09
4.15836e-09
4.05836e-09
3.94924e-09
3.83185e-09
3.70713e-09
3.57603e-09
3.43952e-09
3.29861e-09
3.15428e-09
3.00749e-09
2.85922e-09
2.71036e-09
2.5618e-09
2.41436e-09
2.26882e-09
2.12589e-09
1.98619e-09
1.85031e-09
1.71875e-09
1.59194e-09
1.47023e-09
1.35391e-09
1.24321e-09
1.13828e-09
1.03921e-09
9.46035e-10
8.58747e-10
7.77279e-10
7.01527e-10
6.31347e-10
5.66565e-10
5.06979e-10
4.52366e-10
4.02487e-10
3.57089e-10
3.15912e-10
2.78689e-10
2.45155e-10
2.15044e-10
1.88099e-10
1.64064e-10
1.42697e-10
1.23762e-10
1.07037e-10
9.23114e-11
7.93879e-11
6.80818e-11
5.82221e-11
4.96506e-11
4.22224e-11
3.5805e-11
3.02781e-11
2.55328e-11
2.14711e-11
1.80052e-11
1.50567e-11
1.2556e-11
1.04416e-11
8.65903e-12
7.16088e-12
5.9055e-12
4.85671e-12
3.98311e-12
3.25762e-12
2.6569e-12
2.16097e-12
1.75275e-12
1.41773e-12
1.14358e-12
9.19903e-13
7.37937e-13
5.90337e-13
4.70959e-13
3.74688e-13
2.97275e-13
2.35206e-13
1.85582e-13
1.4602e-13
1.14569e-13
8.96355e-14
6.99212e-14
5.43731e-14
4.21388e-14
3.253e-14
2.4992e-14
1.90781e-14
1.44288e-14
1.07536e-14
7.81676e-15
5.42458e-15
3.415e-15
1.64849e-15
0
0
2.10982e-15
4.37075e-15
6.94296e-15
1.00052e-14
1.3765e-14
1.84705e-14
2.44239e-14
3.19974e-14
4.1652e-14
5.39605e-14
6.96343e-14
8.95563e-14
1.14821e-13
1.46779e-13
1.87097e-13
2.37822e-13
3.01461e-13
3.81076e-13
4.80393e-13
6.03933e-13
7.57159e-13
9.46658e-13
1.18034e-12
1.46766e-12
1.81991e-12
2.25051e-12
2.77534e-12
3.41315e-12
4.18599e-12
5.11968e-12
6.24437e-12
7.59514e-12
9.2126e-12
1.11436e-11
1.34422e-11
1.617e-11
1.93975e-11
2.32048e-11
2.76823e-11
3.29321e-11
3.90687e-11
4.622e-11
5.4528e-11
6.41503e-11
7.526e-11
8.80475e-11
1.0272e-10
1.19502e-10
1.38637e-10
1.60386e-10
1.85025e-10
2.12851e-10
2.44174e-10
2.79317e-10
3.18619e-10
3.62427e-10
4.11094e-10
4.64979e-10
5.24439e-10
5.89829e-10
6.61491e-10
7.39756e-10
8.2493e-10
9.17296e-10
1.0171e-09
1.12455e-09
1.2398e-09
1.36297e-09
1.49409e-09
1.63313e-09
1.78e-09
1.93452e-09
2.09641e-09
2.26533e-09
2.44082e-09
2.62234e-09
2.80924e-09
3.00078e-09
3.19614e-09
3.39438e-09
3.59449e-09
3.79539e-09
3.99592e-09
4.19485e-09
4.39092e-09
4.58281e-09
4.76921e-09
4.94877e-09
5.12017e-09
5.28209e-09
5.43328e-09
5.57253e-09
5.6987e-09
5.81075e-09
5.90773e-09
5.98882e-09
6.05331e-09
6.10065e-09
6.13043e-09
6.14237e-09
6.13637e-09
6.11249e-09
6.07092e-09
6.01204e-09
5.93636e-09
5.84452e-09
5.73731e-09
5.61563e-09
5.48051e-09
5.33303e-09
5.1744e-09
5.00585e-09
4.82868e-09
4.64422e-09
4.4538e-09
4.25877e-09
4.06043e-09
3.86008e-09
3.65896e-09
3.45824e-09
3.25906e-09
3.06244e-09
2.86935e-09
2.68065e-09
2.49712e-09
2.31943e-09
2.14817e-09
1.98381e-09
1.82674e-09
1.67726e-09
1.53559e-09
1.40184e-09
1.27606e-09
1.15824e-09
1.04828e-09
9.46041e-10
8.51333e-10
7.63917e-10
6.8352e-10
6.0984e-10
5.42552e-10
4.81315e-10
4.25776e-10
3.75576e-10
3.30355e-10
2.89755e-10
2.53425e-10
2.21024e-10
1.92221e-10
1.66699e-10
1.44159e-10
1.24315e-10
1.06902e-10
9.16689e-11
7.83861e-11
6.68399e-11
5.68348e-11
4.81921e-11
4.07495e-11
3.43599e-11
2.88915e-11
2.42256e-11
2.02566e-11
1.68908e-11
1.40451e-11
1.16463e-11
9.63048e-12
7.94146e-12
6.53052e-12
5.35539e-12
4.37957e-12
3.57165e-12
2.90473e-12
2.35582e-12
1.90537e-12
1.5368e-12
1.23611e-12
9.91514e-13
7.9313e-13
6.32694e-13
5.03322e-13
3.99302e-13
3.15907e-13
2.49237e-13
1.96091e-13
1.53845e-13
1.20355e-13
9.38775e-14
7.29973e-14
5.65687e-14
4.36666e-14
3.35458e-14
2.56063e-14
1.9365e-14
1.44318e-14
1.04899e-14
7.27939e-15
4.58255e-15
2.21206e-15
0
0
2.78874e-15
5.77733e-15
9.17759e-15
1.32259e-14
1.81968e-14
2.44186e-14
3.22912e-14
4.23068e-14
5.50758e-14
7.13559e-14
9.20888e-14
1.18444e-13
1.51868e-13
1.94152e-13
2.47502e-13
3.14628e-13
3.98851e-13
5.04227e-13
6.35691e-13
7.99232e-13
1.00209e-12
1.253e-12
1.56242e-12
1.94292e-12
2.40946e-12
2.9798e-12
3.67504e-12
4.52002e-12
5.54398e-12
6.78119e-12
8.27165e-12
1.00619e-11
1.22058e-11
1.47657e-11
1.7813e-11
2.14299e-11
2.57097e-11
3.07589e-11
3.66977e-11
4.36615e-11
5.18026e-11
6.12908e-11
7.23151e-11
8.50847e-11
9.983e-11
1.16804e-10
1.36282e-10
1.58564e-10
1.83972e-10
2.12854e-10
2.45579e-10
2.8254e-10
3.2415e-10
3.70842e-10
4.23065e-10
4.81281e-10
5.45962e-10
6.17586e-10
6.9663e-10
7.83566e-10
8.78851e-10
9.82927e-10
1.0962e-09
1.21906e-09
1.35182e-09
1.49477e-09
1.64811e-09
1.812e-09
1.98649e-09
2.17154e-09
2.36703e-09
2.57272e-09
2.78825e-09
3.01315e-09
3.24682e-09
3.48854e-09
3.73745e-09
3.99256e-09
4.25278e-09
4.51685e-09
4.78345e-09
5.05111e-09
5.31829e-09
5.58337e-09
5.84466e-09
6.1004e-09
6.34883e-09
6.58816e-09
6.81663e-09
7.03248e-09
7.23404e-09
7.4197e-09
7.58793e-09
7.73734e-09
7.86667e-09
7.97482e-09
8.06086e-09
8.12403e-09
8.16378e-09
8.17976e-09
8.17183e-09
8.14005e-09
8.0847e-09
8.00626e-09
7.90542e-09
7.78304e-09
7.64018e-09
7.47803e-09
7.29795e-09
7.10141e-09
6.89e-09
6.66539e-09
6.42929e-09
6.18347e-09
5.92972e-09
5.66983e-09
5.40555e-09
5.13859e-09
4.87062e-09
4.6032e-09
4.33784e-09
4.07591e-09
3.8187e-09
3.56735e-09
3.3229e-09
3.08625e-09
2.85816e-09
2.63929e-09
2.43015e-09
2.23113e-09
2.04252e-09
1.86447e-09
1.69705e-09
1.54022e-09
1.39388e-09
1.25783e-09
1.13181e-09
1.01551e-09
9.08553e-10
8.10542e-10
7.21043e-10
6.39601e-10
5.65744e-10
4.98994e-10
4.3887e-10
3.84897e-10
3.36606e-10
2.93541e-10
2.55262e-10
2.21349e-10
1.914e-10
1.65037e-10
1.41905e-10
1.21673e-10
1.04032e-10
8.86991e-11
7.54145e-11
6.394e-11
5.40598e-11
4.55787e-11
3.83209e-11
3.2129e-11
2.68626e-11
2.23969e-11
1.86217e-11
1.54398e-11
1.27661e-11
1.05261e-11
8.65516e-12
7.09704e-12
5.80332e-12
4.73231e-12
3.84831e-12
3.1208e-12
2.52385e-12
2.03546e-12
1.63705e-12
1.31301e-12
1.05021e-12
8.37696e-13
6.6635e-13
5.28593e-13
4.18159e-13
3.29883e-13
2.5952e-13
2.03592e-13
1.5926e-13
1.24214e-13
9.65793e-14
7.48378e-14
5.77648e-14
4.43733e-14
3.3869e-14
2.56121e-14
1.90863e-14
1.38725e-14
9.6263e-15
6.0598e-15
2.92509e-15
0
0
3.65193e-15
7.56571e-15
1.20189e-14
1.73212e-14
2.38326e-14
3.19832e-14
4.22971e-14
5.542e-14
7.21517e-14
9.34861e-14
1.20658e-13
1.55201e-13
1.99014e-13
2.54445e-13
3.24388e-13
4.12401e-13
5.22841e-13
6.6103e-13
8.33448e-13
1.04796e-12
1.31406e-12
1.64323e-12
2.04921e-12
2.54849e-12
3.16072e-12
3.90928e-12
4.82182e-12
5.93105e-12
7.27537e-12
8.89984e-12
1.0857e-11
1.32082e-11
1.60241e-11
1.93867e-11
2.33901e-11
2.81423e-11
3.37662e-11
4.04018e-11
4.82075e-11
5.73616e-11
6.80644e-11
8.05397e-11
9.50364e-11
1.1183e-10
1.31225e-10
1.53553e-10
1.79179e-10
2.08497e-10
2.41933e-10
2.79945e-10
3.2302e-10
3.71676e-10
4.2646e-10
4.87941e-10
5.56714e-10
6.33389e-10
7.18589e-10
8.12946e-10
9.1709e-10
1.03165e-09
1.15722e-09
1.29439e-09
1.44371e-09
1.60567e-09
1.78071e-09
1.96921e-09
2.17144e-09
2.38759e-09
2.61775e-09
2.86187e-09
3.11979e-09
3.39119e-09
3.67561e-09
3.97242e-09
4.28084e-09
4.59991e-09
4.9285e-09
5.26531e-09
5.60888e-09
5.95759e-09
6.30965e-09
6.66316e-09
7.01606e-09
7.36621e-09
7.71137e-09
8.04923e-09
8.37746e-09
8.6937e-09
8.99559e-09
9.28085e-09
9.54723e-09
9.7926e-09
1.0015e-08
1.02125e-08
1.03835e-08
1.05265e-08
1.06403e-08
1.07238e-08
1.07764e-08
1.07976e-08
1.07872e-08
1.07453e-08
1.06723e-08
1.05687e-08
1.04355e-08
1.02739e-08
1.00851e-08
9.87092e-09
9.63302e-09
9.37338e-09
9.09409e-09
8.79735e-09
8.48545e-09
8.16072e-09
7.82553e-09
7.48222e-09
7.13313e-09
6.78052e-09
6.42659e-09
6.07342e-09
5.72297e-09
5.37708e-09
5.03744e-09
4.70556e-09
4.38281e-09
4.07039e-09
3.7693e-09
3.48039e-09
3.20435e-09
2.9417e-09
2.69279e-09
2.45784e-09
2.23695e-09
2.03006e-09
1.83701e-09
1.65756e-09
1.49135e-09
1.33797e-09
1.19694e-09
1.06772e-09
9.49726e-10
8.4237e-10
7.45023e-10
6.57054e-10
5.77827e-10
5.06712e-10
4.43091e-10
3.86362e-10
3.35943e-10
2.9128e-10
2.51843e-10
2.17131e-10
1.86678e-10
1.60044e-10
1.36825e-10
1.16647e-10
9.91659e-11
8.40686e-11
7.10705e-11
5.99143e-11
5.03684e-11
4.22253e-11
3.53002e-11
2.94287e-11
2.44657e-11
2.02831e-11
1.6769e-11
1.38252e-11
1.13667e-11
9.31947e-12
7.61985e-12
6.21298e-12
5.05189e-12
4.09644e-12
3.31254e-12
2.67127e-12
2.14822e-12
1.72283e-12
1.37787e-12
1.09895e-12
8.74089e-13
6.93323e-13
5.48425e-13
4.32611e-13
3.40307e-13
2.66946e-13
2.08801e-13
1.6284e-13
1.26602e-13
9.80938e-14
7.57096e-14
5.81537e-14
4.43841e-14
3.35615e-14
2.50088e-14
1.81761e-14
1.26121e-14
7.93911e-15
3.83217e-15
0
0
4.7517e-15
9.84431e-15
1.56392e-14
2.25397e-14
3.10143e-14
4.16235e-14
5.50498e-14
7.21342e-14
9.3919e-14
1.21699e-13
1.57084e-13
2.02071e-13
2.59136e-13
3.31341e-13
4.22458e-13
5.37125e-13
6.81025e-13
8.611e-13
1.0858e-12
1.36538e-12
1.71225e-12
2.14136e-12
2.67067e-12
3.32169e-12
4.12007e-12
5.09633e-12
6.2866e-12
7.73356e-12
9.48742e-12
1.1607e-11
1.4161e-11
1.72294e-11
2.09049e-11
2.52944e-11
3.05211e-11
3.6726e-11
4.40702e-11
5.27365e-11
6.29322e-11
7.48907e-11
8.88741e-11
1.05175e-10
1.2412e-10
1.4607e-10
1.71422e-10
2.00614e-10
2.3412e-10
2.72459e-10
3.16188e-10
3.65908e-10
4.22259e-10
4.85919e-10
5.57606e-10
6.38067e-10
7.28081e-10
8.28451e-10
9.39996e-10
1.06354e-09
1.19992e-09
1.34996e-09
1.51444e-09
1.69414e-09
1.88978e-09
2.102e-09
2.3314e-09
2.57845e-09
2.84354e-09
3.12691e-09
3.42867e-09
3.74879e-09
4.08703e-09
4.44298e-09
4.81606e-09
5.20543e-09
5.61007e-09
6.02872e-09
6.45991e-09
6.90193e-09
7.35287e-09
7.81059e-09
8.27276e-09
8.73685e-09
9.2002e-09
9.65997e-09
1.01132e-08
1.05569e-08
1.0988e-08
1.14034e-08
1.18e-08
1.21747e-08
1.25247e-08
1.28471e-08
1.31393e-08
1.33988e-08
1.36235e-08
1.38115e-08
1.39611e-08
1.4071e-08
1.41402e-08
1.41682e-08
1.41547e-08
1.40997e-08
1.40039e-08
1.38679e-08
1.3693e-08
1.34808e-08
1.3233e-08
1.29517e-08
1.26392e-08
1.22983e-08
1.19315e-08
1.15418e-08
1.11322e-08
1.07058e-08
1.02656e-08
9.81481e-09
9.35643e-09
8.89346e-09
8.42878e-09
7.96511e-09
7.50505e-09
7.05101e-09
6.60519e-09
6.1696e-09
5.74602e-09
5.33602e-09
4.94093e-09
4.56185e-09
4.1997e-09
3.85513e-09
3.52862e-09
3.22047e-09
2.93077e-09
2.65946e-09
2.40633e-09
2.17105e-09
1.95317e-09
1.75212e-09
1.56727e-09
1.39792e-09
1.24331e-09
1.10265e-09
9.75124e-10
8.59892e-10
7.56125e-10
6.62994e-10
5.79687e-10
5.05413e-10
4.39411e-10
3.80949e-10
3.29334e-10
2.8391e-10
2.44063e-10
2.09218e-10
1.78845e-10
1.52453e-10
1.29591e-10
1.09849e-10
9.28546e-11
7.827e-11
6.57922e-11
5.51494e-11
4.60995e-11
3.84275e-11
3.19433e-11
2.64795e-11
2.18894e-11
1.80448e-11
1.48343e-11
1.21612e-11
9.94231e-12
8.10579e-12
6.59027e-12
5.34332e-12
4.32038e-12
3.48365e-12
2.80124e-12
2.24631e-12
1.79637e-12
1.4326e-12
1.13935e-12
9.03643e-13
7.14723e-13
5.63739e-13
4.43416e-13
3.47796e-13
2.72017e-13
2.12123e-13
1.64903e-13
1.2776e-13
9.85981e-14
7.57289e-14
5.77935e-14
4.36981e-14
3.25602e-14
2.36631e-14
1.64186e-14
1.03349e-14
4.98851e-15
0
0
6.15299e-15
1.27477e-14
2.02523e-14
2.91895e-14
4.01666e-14
5.39099e-14
7.13042e-14
9.34399e-14
1.21668e-13
1.57669e-13
2.03528e-13
2.61838e-13
3.35811e-13
4.29417e-13
5.47553e-13
6.96236e-13
8.82844e-13
1.11639e-12
1.40784e-12
1.77051e-12
2.22051e-12
2.77727e-12
3.46411e-12
4.30897e-12
5.34519e-12
6.61242e-12
8.15763e-12
1.00363e-11
1.23137e-11
1.50663e-11
1.83835e-11
2.23693e-11
2.71442e-11
3.28475e-11
3.96393e-11
4.77034e-11
5.72492e-11
6.8515e-11
8.17706e-11
9.73201e-11
1.15505e-10
1.36707e-10
1.61351e-10
1.89907e-10
2.22894e-10
2.60881e-10
3.04489e-10
3.54394e-10
4.11323e-10
4.76059e-10
5.49439e-10
6.32349e-10
7.25723e-10
8.30542e-10
9.47822e-10
1.07861e-09
1.22398e-09
1.38502e-09
1.5628e-09
1.75841e-09
1.97289e-09
2.20723e-09
2.46239e-09
2.73923e-09
3.0385e-09
3.36084e-09
3.70676e-09
4.07658e-09
4.47046e-09
4.88833e-09
5.32992e-09
5.79469e-09
6.28186e-09
6.79037e-09
7.31888e-09
7.86576e-09
8.42906e-09
9.00658e-09
9.5958e-09
1.01939e-08
1.0798e-08
1.14045e-08
1.20102e-08
1.26112e-08
1.32038e-08
1.3784e-08
1.43477e-08
1.48908e-08
1.54095e-08
1.58996e-08
1.63573e-08
1.67791e-08
1.71613e-08
1.75009e-08
1.7795e-08
1.8041e-08
1.82368e-08
1.83807e-08
1.84714e-08
1.85081e-08
1.84906e-08
1.84189e-08
1.82936e-08
1.8116e-08
1.78874e-08
1.76099e-08
1.72859e-08
1.69182e-08
1.65097e-08
1.60639e-08
1.55843e-08
1.50748e-08
1.45393e-08
1.39818e-08
1.34064e-08
1.28171e-08
1.22178e-08
1.16127e-08
1.10053e-08
1.03992e-08
9.79796e-09
9.20459e-09
8.62201e-09
8.05283e-09
7.49939e-09
6.96374e-09
6.4476e-09
5.95244e-09
5.47942e-09
5.02941e-09
4.60303e-09
4.20066e-09
3.82242e-09
3.46823e-09
3.13782e-09
2.83073e-09
2.54638e-09
2.28403e-09
2.04285e-09
1.82192e-09
1.62024e-09
1.43678e-09
1.27047e-09
1.12021e-09
9.84915e-10
8.63506e-10
7.54917e-10
6.58116e-10
5.72105e-10
4.95931e-10
4.28687e-10
3.69516e-10
3.17617e-10
2.72239e-10
2.32689e-10
1.98327e-10
1.68566e-10
1.4287e-10
1.20753e-10
1.01774e-10
8.55394e-11
7.16939e-11
5.99222e-11
4.9944e-11
4.15117e-11
3.44073e-11
2.84397e-11
2.3442e-11
1.92691e-11
1.57951e-11
1.29117e-11
1.05255e-11
8.55668e-12
6.93693e-12
5.60829e-12
4.52166e-12
3.63553e-12
2.91503e-12
2.3309e-12
1.8587e-12
1.47808e-12
1.17218e-12
9.2703e-13
7.31127e-13
5.75022e-13
4.5098e-13
3.52687e-13
2.75005e-13
2.13768e-13
1.65605e-13
1.27794e-13
9.81449e-14
7.48948e-14
5.66245e-14
4.21891e-14
3.06591e-14
2.12718e-14
1.33893e-14
6.46268e-15
0
0
7.93641e-15
1.64429e-14
2.61238e-14
3.76538e-14
5.18169e-14
6.95508e-14
9.19981e-14
1.20567e-13
1.57003e-13
2.03475e-13
2.62679e-13
3.37965e-13
4.33483e-13
5.54364e-13
7.06938e-13
8.98985e-13
1.14004e-12
1.44176e-12
1.81833e-12
2.28697e-12
2.86853e-12
3.58812e-12
4.47595e-12
5.56816e-12
6.90792e-12
8.54655e-12
1.05449e-11
1.29747e-11
1.59206e-11
1.94816e-11
2.37736e-11
2.89313e-11
3.5111e-11
4.24931e-11
5.12853e-11
6.17258e-11
7.40863e-11
8.86759e-11
1.05845e-10
1.25987e-10
1.49547e-10
1.77019e-10
2.08955e-10
2.45966e-10
2.88726e-10
3.37974e-10
3.94517e-10
4.59233e-10
5.3307e-10
6.17043e-10
7.12242e-10
8.1982e-10
9.40993e-10
1.07704e-09
1.22927e-09
1.39907e-09
1.58782e-09
1.79694e-09
2.02785e-09
2.28193e-09
2.56057e-09
2.86506e-09
3.19664e-09
3.55642e-09
3.94542e-09
4.36447e-09
4.81421e-09
5.2951e-09
5.80733e-09
6.35083e-09
6.92524e-09
7.52989e-09
8.16375e-09
8.82545e-09
9.51325e-09
1.0225e-08
1.09583e-08
1.17101e-08
1.24772e-08
1.32561e-08
1.40426e-08
1.48326e-08
1.56214e-08
1.64043e-08
1.71763e-08
1.79321e-08
1.86665e-08
1.93743e-08
2.00501e-08
2.06888e-08
2.12854e-08
2.18351e-08
2.23334e-08
2.27762e-08
2.31596e-08
2.34803e-08
2.37357e-08
2.39235e-08
2.4042e-08
2.40901e-08
2.40674e-08
2.39742e-08
2.38111e-08
2.35798e-08
2.32821e-08
2.29207e-08
2.24986e-08
2.20195e-08
2.14874e-08
2.09066e-08
2.02819e-08
1.96181e-08
1.89205e-08
1.81942e-08
1.74446e-08
1.6677e-08
1.58965e-08
1.51082e-08
1.43171e-08
1.35279e-08
1.27449e-08
1.19722e-08
1.12137e-08
1.04726e-08
9.75211e-09
9.05481e-09
8.38299e-09
7.73853e-09
7.12294e-09
6.53735e-09
5.98258e-09
5.45909e-09
4.96705e-09
4.50634e-09
4.07661e-09
3.67727e-09
3.30753e-09
2.96644e-09
2.65291e-09
2.36574e-09
2.10362e-09
1.86522e-09
1.64912e-09
1.45391e-09
1.27817e-09
1.12048e-09
9.79456e-10
8.5376e-10
7.42091e-10
6.43206e-10
5.55925e-10
4.79134e-10
4.11788e-10
3.52913e-10
3.01607e-10
2.57036e-10
2.18439e-10
1.85118e-10
1.56441e-10
1.31837e-10
1.10793e-10
9.2849e-11
7.75944e-11
6.46657e-11
5.37415e-11
4.45388e-11
3.68097e-11
3.03376e-11
2.49342e-11
2.04366e-11
1.6704e-11
1.36154e-11
1.10673e-11
8.97132e-12
7.25224e-12
5.84644e-12
4.70019e-12
3.76829e-12
3.01285e-12
2.40225e-12
1.91014e-12
1.51466e-12
1.19776e-12
9.44554e-13
7.42808e-13
5.82516e-13
4.55511e-13
3.55148e-13
2.7604e-13
2.13827e-13
1.64992e-13
1.26702e-13
9.66795e-14
7.30895e-14
5.44529e-14
3.9569e-14
2.74523e-14
1.72789e-14
8.33989e-15
0
0
1.02019e-14
2.11371e-14
3.3583e-14
4.84075e-14
6.66193e-14
8.94249e-14
1.18295e-13
1.55042e-13
2.01912e-13
2.61699e-13
3.37874e-13
4.34749e-13
5.57671e-13
7.13248e-13
9.09636e-13
1.15686e-12
1.4672e-12
1.85569e-12
2.3406e-12
2.94414e-12
3.69319e-12
4.62014e-12
5.76392e-12
7.17119e-12
8.89761e-12
1.10094e-11
1.35851e-11
1.67173e-11
2.05153e-11
2.51069e-11
3.06417e-11
3.72937e-11
4.52649e-11
5.47883e-11
6.61324e-11
7.96049e-11
9.55572e-11
1.14389e-10
1.36553e-10
1.62559e-10
1.92981e-10
2.28461e-10
2.69711e-10
3.17524e-10
3.72771e-10
4.3641e-10
5.09486e-10
5.93137e-10
6.88589e-10
7.97163e-10
9.20268e-10
1.0594e-09
1.21614e-09
1.39214e-09
1.58911e-09
1.80884e-09
2.05313e-09
2.32382e-09
2.62275e-09
2.95174e-09
3.31257e-09
3.70693e-09
4.13643e-09
4.60254e-09
5.10655e-09
5.64957e-09
6.23245e-09
6.85577e-09
7.5198e-09
8.22446e-09
8.96929e-09
9.75341e-09
1.05755e-08
1.14338e-08
1.23261e-08
1.32496e-08
1.42011e-08
1.51767e-08
1.61724e-08
1.71833e-08
1.82043e-08
1.92299e-08
2.02541e-08
2.12707e-08
2.22731e-08
2.32547e-08
2.42086e-08
2.5128e-08
2.60059e-08
2.68358e-08
2.76109e-08
2.83252e-08
2.89727e-08
2.95481e-08
3.00465e-08
3.04635e-08
3.07956e-08
3.10398e-08
3.1194e-08
3.12568e-08
3.12276e-08
3.11068e-08
3.08953e-08
3.05949e-08
3.02085e-08
2.97392e-08
2.91911e-08
2.85689e-08
2.78778e-08
2.71236e-08
2.63122e-08
2.54502e-08
2.45442e-08
2.3601e-08
2.26276e-08
2.16308e-08
2.06173e-08
1.95939e-08
1.85668e-08
1.75421e-08
1.65257e-08
1.55227e-08
1.45381e-08
1.35763e-08
1.26412e-08
1.17364e-08
1.08647e-08
1.00285e-08
9.22992e-09
8.47032e-09
7.75077e-09
7.07185e-09
6.4338e-09
5.83644e-09
5.27932e-09
4.76165e-09
4.28241e-09
3.84036e-09
3.43407e-09
3.06199e-09
2.72242e-09
2.4136e-09
2.13372e-09
1.88092e-09
1.65336e-09
1.4492e-09
1.26666e-09
1.10397e-09
9.59454e-10
8.31501e-10
7.1858e-10
6.19243e-10
5.32137e-10
4.55998e-10
3.89656e-10
3.32032e-10
2.82138e-10
2.3907e-10
2.0201e-10
1.70219e-10
1.4303e-10
1.1985e-10
1.00147e-10
8.34502e-11
6.93442e-11
5.74627e-11
4.7485e-11
3.91312e-11
3.21578e-11
2.63541e-11
2.15382e-11
1.75537e-11
1.42669e-11
1.15636e-11
9.34677e-12
7.53411e-12
6.05631e-12
4.85499e-12
3.88129e-12
3.09435e-12
2.4602e-12
1.95063e-12
1.54236e-12
1.21618e-12
9.56322e-13
7.49881e-13
5.86329e-13
4.571e-13
3.55249e-13
2.75159e-13
2.12298e-13
1.63016e-13
1.24378e-13
9.40226e-14
7.00436e-14
5.0895e-14
3.53084e-14
2.22228e-14
1.07259e-14
0
0
1.30733e-14
2.70869e-14
4.30377e-14
6.20387e-14
8.53837e-14
1.14621e-13
1.51636e-13
1.98755e-13
2.58862e-13
3.3554e-13
4.33246e-13
5.57516e-13
7.15214e-13
9.14829e-13
1.16683e-12
1.4841e-12
1.88241e-12
2.38107e-12
3.00358e-12
3.77847e-12
4.74028e-12
5.93066e-12
7.39968e-12
9.20732e-12
1.14252e-11
1.41384e-11
1.74481e-11
2.14735e-11
2.6355e-11
3.22574e-11
3.93732e-11
4.79264e-11
5.81771e-11
7.04257e-11
8.50179e-11
1.0235e-10
1.22876e-10
1.4711e-10
1.75635e-10
2.09111e-10
2.48277e-10
2.93961e-10
3.47082e-10
4.08663e-10
4.79829e-10
5.61817e-10
6.55979e-10
7.63781e-10
8.8681e-10
1.02677e-09
1.18549e-09
1.3649e-09
1.56704e-09
1.79405e-09
2.04816e-09
2.33166e-09
2.64689e-09
2.99625e-09
3.38211e-09
3.80683e-09
4.27271e-09
4.78197e-09
5.33668e-09
5.93876e-09
6.58989e-09
7.2915e-09
8.04472e-09
8.8503e-09
9.70861e-09
1.06196e-08
1.15826e-08
1.25965e-08
1.36597e-08
1.47698e-08
1.5924e-08
1.71187e-08
1.83497e-08
1.96122e-08
2.09007e-08
2.22091e-08