# vtk DataFile Version 3.0
2D field
ASCII
DATASET STRUCTURED_POINTS
DIMENSIONS 201 201 1
ORIGIN 0 0 0
SPACING 0.005 0.005 1
POINT_DATA 40401
SCALARS temperature double 1
LOOKUP_TABLE default
0
0
0
0
0
0
0
0
0
0
0
0
0
0
0
0
0
0
0
0
0
0
0
0
0
0
0
0
0
0
0
0
0
0
0
0
0
0
0
0
0
0
0
0
0
0
0
0
0
0
0
0
0
0
0
0
0
0
0
0
0
0
0
0
0
0
0
0
0
0
0
0
0
0
0
0
0
0
0
0
0
0
0
0
0
0
0
0
0
0
0
0
0
0
0
0
0
0
0
0
0
0
0
0
0
0
0
0
0
0
0
0
0
0
0
0
0
0
0
0
0
0
0
0
0
0
0
0
0
0
0
0
0
0
0
0
0
0
0
0
0
0
0
0
0
0
0
0
0
0
0
0
0
0
0
0
0
0
0
0
0
0
0
0
0
0
0
0
0
0
0
0
0
0
0
0
0
0
0
0
0
0
0
0
0
0
0
0
0
0
0
0
0
0
0
0
0
0
0
0
0
0
4.98801e-18
1.04485e-17
1.68927e-17
2.49117e-17
3.52222e-17
4.87216e-17
6.65538e-17
9.01911e-17
1.21536e-16
1.63049e-16
2.17907e-16
2.90206e-16
3.8521e-16
5.09662e-16
6.72171e-16
8.83691e-16
1.15811e-15
1.51296e-15
1.97032e-15
2.55787e-15
3.31016e-15
4.27023e-15
5.49139e-15
7.03952e-15
8.99565e-15
1.14591e-14
1.4551e-14
1.84189e-14
2.32412e-14
2.92333e-14
3.66541e-14
4.5813e-14
5.70791e-14
7.08903e-14
8.7764e-14
1.08309e-13
1.3324e-13
1.63387e-13
1.99719e-13
2.43352e-13
2.95574e-13
3.57858e-13
4.31884e-13
5.19559e-13
6.23036e-13
7.44732e-13
8.87351e-13
1.0539e-12
1.24769e-12
1.47238e-12
1.73195e-12
2.03074e-12
2.37343e-12
2.76501e-12
3.21082e-12
3.7165e-12
4.28795e-12
4.93129e-12
5.65283e-12
6.45899e-12
7.35624e-12
8.351e-12
9.44955e-12
1.06579e-11
1.19818e-11
1.34264e-11
1.49962e-11
1.66951e-11
1.85259e-11
2.04904e-11
2.25895e-11
2.48223e-11
2.71867e-11
2.9679e-11
3.22939e-11
3.50242e-11
3.7861e-11
4.07935e-11
4.3809e-11
4.68932e-11
5.00298e-11
5.32008e-11
5.63871e-11
5.95677e-11
6.27209e-11
6.58237e-11
6.88526e-11
7.17837e-11
7.45932e-11
7.72571e-11
7.97525e-11
8.20571e-11
8.41497e-11
8.60111e-11
8.76235e-11
8.89716e-11
9.00422e-11
9.08248e-11
9.13117e-11
9.14981e-11
9.13821e-11
9.09648e-11
9.02503e-11
8.92458e-11
8.7961e-11
8.64084e-11
8.46029e-11
8.25616e-11
8.03036e-11
7.78496e-11
7.52215e-11
7.24424e-11
6.95359e-11
6.65258e-11
6.34363e-11
6.02909e-11
5.71127e-11
5.3924e-11
5.07456e-11
4.75975e-11
4.44979e-11
4.14633e-11
3.85088e-11
3.56474e-11
3.28903e-11
3.02469e-11
2.77247e-11
2.53296e-11
2.30657e-11
2.09353e-11
1.89396e-11
1.70781e-11
1.53493e-11
1.37505e-11
1.2278e-11
1.09275e-11
9.69389e-12
8.57154e-12
7.55449e-12
6.63648e-12
5.8111e-12
5.07186e-12
4.41231e-12
3.8261e-12
3.30703e-12
2.84914e-12
2.44671e-12
2.09434e-12
1.78694e-12
1.51974e-12
1.28833e-12
1.08864e-12
9.16947e-13
7.69849e-13
6.44273e-13
5.37452e-13
4.46904e-13
3.70421e-13
3.06044e-13
2.52047e-13
2.06914e-13
1.6932e-13
1.38114e-13
1.12301e-13
9.10205e-14
7.3538e-14
5.92243e-14
4.75451e-14
3.80477e-14
3.03509e-14
2.41342e-14
1.913e-14
1.51154e-14
1.19055e-14
9.34751e-15
7.31594e-15
5.7078e-15
4.43909e-15
3.44147e-15
2.65964e-15
2.04894e-15
1.57348e-15
1.20455e-15
9.19205e-16
6.99239e-16
5.30224e-16
4.00778e-16
3.01952e-16
2.26739e-16
1.69665e-16
1.26474e-16
9.38589e-17
6.92628e-17
5.07063e-17
3.66581e-17
2.59279e-17
1.75822e-17
1.08751e-17
5.19181e-18
0
0
1.04478e-17
2.18854e-17
3.53839e-17
5.21814e-17
7.37795e-17
1.02058e-16
1.39414e-16
1.88932e-16
2.54598e-16
3.41568e-16
4.56499e-16
6.07973e-16
8.07021e-16
1.06777e-15
1.40827e-15
1.85147e-15
2.42647e-15
3.17003e-15
4.12841e-15
5.3596e-15
6.93608e-15
8.948e-15
1.15071e-14
1.47516e-14
1.88511e-14
2.4014e-14
3.04942e-14
3.86009e-14
4.87083e-14
6.12679e-14
7.68222e-14
9.60203e-14
1.19636e-13
1.48587e-13
1.83959e-13
2.27028e-13
2.79291e-13
3.42492e-13
4.1866e-13
5.10138e-13
6.19623e-13
7.50207e-13
9.05414e-13
1.08924e-12
1.3062e-12
1.56138e-12
1.86042e-12
2.20965e-12
2.61601e-12
3.08717e-12
3.6315e-12
4.25807e-12
4.97671e-12
5.7979e-12
6.73285e-12
7.79335e-12
8.9918e-12
1.03411e-11
1.18543e-11
1.35451e-11
1.5427e-11
1.75134e-11
1.98175e-11
2.23521e-11
2.51289e-11
2.81589e-11
3.14517e-11
3.50152e-11
3.88555e-11
4.29765e-11
4.73795e-11
5.20632e-11
5.70231e-11
6.22514e-11
6.77368e-11
7.34643e-11
7.94153e-11
8.55671e-11
9.18932e-11
9.83633e-11
1.04943e-10
1.11596e-10
1.1828e-10
1.24953e-10
1.31568e-10
1.38078e-10
1.44432e-10
1.50582e-10
1.56476e-10
1.62065e-10
1.673e-10
1.72135e-10
1.76526e-10
1.80431e-10
1.83814e-10
1.86642e-10
1.88889e-10
1.90531e-10
1.91552e-10
1.91944e-10
1.917e-10
1.90825e-10
1.89326e-10
1.87219e-10
1.84523e-10
1.81266e-10
1.77478e-10
1.73196e-10
1.68459e-10
1.63311e-10
1.57797e-10
1.51967e-10
1.45869e-10
1.39554e-10
1.33072e-10
1.26474e-10
1.19806e-10
1.13116e-10
1.06449e-10
9.98442e-11
9.33416e-11
8.69756e-11
8.07774e-11
7.47746e-11
6.89907e-11
6.34454e-11
5.81544e-11
5.31301e-11
4.83808e-11
4.3912e-11
3.97255e-11
3.58207e-11
3.21943e-11
2.88405e-11
2.57518e-11
2.2919e-11
2.03314e-11
1.79772e-11
1.58439e-11
1.39184e-11
1.21872e-11
1.06367e-11
9.25333e-12
8.02383e-12
6.93516e-12
5.97482e-12
5.13083e-12
4.39183e-12
3.74713e-12
3.18677e-12
2.70148e-12
2.28271e-12
1.92266e-12
1.61419e-12
1.35087e-12
1.12687e-12
9.36998e-13
7.76625e-13
6.4164e-13
5.28421e-13
4.33789e-13
3.54967e-13
2.89541e-13
2.3542e-13
1.90806e-13
1.54154e-13
1.24146e-13
9.9662e-14
7.97524e-14
6.36174e-14
5.05858e-14
4.0096e-14
3.16808e-14
2.49524e-14
1.95908e-14
1.53326e-14
1.19621e-14
9.30295e-15
7.2121e-15
5.57353e-15
4.29364e-15
3.29723e-15
2.52407e-15
1.92611e-15
1.46516e-15
1.11099e-15
8.39737e-16
6.32657e-16
4.75058e-16
3.55472e-16
2.64973e-16
1.96639e-16
1.45106e-16
1.06228e-16
7.6796e-17
5.43162e-17
3.68323e-17
2.27817e-17
1.08759e-17
0
0
1.68899e-17
3.53802e-17
5.72032e-17
8.43605e-17
1.19281e-16
1.65004e-16
2.25407e-16
3.05478e-16
4.11666e-16
5.52308e-16
7.38175e-16
9.83151e-16
1.30508e-15
1.72682e-15
2.27757e-15
2.99445e-15
3.92457e-15
5.12741e-15
6.67781e-15
8.66965e-15
1.12202e-14
1.44754e-14
1.86161e-14
2.38659e-14
3.04996e-14
3.88543e-14
4.93413e-14
6.2461e-14
7.88193e-14
9.91473e-14
1.24323e-13
1.55399e-13
1.93626e-13
2.40493e-13
2.97756e-13
3.67484e-13
4.52099e-13
5.5443e-13
6.7776e-13
8.25887e-13
1.00318e-12
1.21465e-12
1.466e-12
1.76372e-12
2.11513e-12
2.52843e-12
3.01282e-12
3.5785e-12
4.23678e-12
5.00006e-12
5.8819e-12
6.89704e-12
8.06136e-12
9.39192e-12
1.09068e-11
1.26253e-11
1.45673e-11
1.67539e-11
1.92063e-11
2.19465e-11
2.49965e-11
2.83781e-11
3.21128e-11
3.6221e-11
4.07221e-11
4.56339e-11
5.09717e-11
5.67486e-11
6.29745e-11
6.96557e-11
7.67943e-11
8.43882e-11
9.24301e-11
1.00907e-10
1.09802e-10
1.19089e-10
1.28739e-10
1.38715e-10
1.48974e-10
1.59467e-10
1.70138e-10
1.80927e-10
1.91768e-10
2.0259e-10
2.13319e-10
2.23877e-10
2.34184e-10
2.44158e-10
2.53719e-10
2.62784e-10
2.71276e-10
2.79119e-10
2.86241e-10
2.92576e-10
2.98065e-10
3.02653e-10
3.06297e-10
3.08961e-10
3.10619e-10
3.11255e-10
3.10861e-10
3.09442e-10
3.07011e-10
3.03593e-10
2.99222e-10
2.93939e-10
2.87795e-10
2.8085e-10
2.73167e-10
2.64816e-10
2.55874e-10
2.46417e-10
2.36527e-10
2.26285e-10
2.15773e-10
2.0507e-10
1.94257e-10
1.83407e-10
1.72593e-10
1.61882e-10
1.51336e-10
1.41012e-10
1.30961e-10
1.21226e-10
1.11847e-10
1.02855e-10
9.4275e-11
8.61279e-11
7.84271e-11
7.11811e-11
6.43931e-11
5.80621e-11
5.21825e-11
4.67451e-11
4.17378e-11
3.71453e-11
3.29504e-11
2.91342e-11
2.56761e-11
2.25549e-11
1.97488e-11
1.72357e-11
1.49936e-11
1.30009e-11
1.12366e-11
9.68025e-12
8.31252e-12
7.11499e-12
6.07033e-12
5.16235e-12
4.37603e-12
3.69755e-12
3.11421e-12
2.61447e-12
2.18788e-12
1.82501e-12
1.51745e-12
1.25768e-12
1.03904e-12
8.55662e-13
7.02397e-13
5.74744e-13
4.68789e-13
3.81148e-13
3.08904e-13
2.49556e-13
2.00969e-13
1.61327e-13
1.29093e-13
1.02971e-13
8.18747e-14
6.4894e-14
5.1272e-14
4.03812e-14
3.17031e-14
2.48112e-14
1.93561e-14
1.50527e-14
1.16691e-14
9.01757e-15
6.94653e-15
5.33427e-15
4.08328e-15
3.11581e-15
2.37005e-15
1.79707e-15
1.35826e-15
1.02327e-15
7.68341e-16
5.74905e-16
4.28527e-16
3.18002e-16
2.34655e-16
1.71779e-16
1.24182e-16
8.78288e-17
5.95562e-17
3.68363e-17
1.75853e-17
0
0
2.49041e-17
5.21689e-17
8.4349e-17
1.24397e-16
1.75897e-16
2.43331e-16
3.32421e-16
4.50527e-16
6.07163e-16
8.14633e-16
1.08883e-15
1.45025e-15
1.92523e-15
2.5475e-15
3.36016e-15
4.41803e-15
5.79064e-15
7.5658e-15
9.85405e-15
1.2794e-14
1.65588e-14
2.13639e-14
2.74767e-14
3.52272e-14
4.50214e-14
5.73573e-14
7.28426e-14
9.22165e-14
1.16374e-13
1.46397e-13
1.83581e-13
2.29482e-13
2.85951e-13
3.55186e-13
4.39784e-13
5.42804e-13
6.67828e-13
8.19037e-13
1.00129e-12
1.2202e-12
1.48223e-12
1.79479e-12
2.16632e-12
2.60642e-12
3.1259e-12
3.73694e-12
4.45311e-12
5.28954e-12
6.26294e-12
7.39168e-12
8.69582e-12
1.01972e-11
1.19193e-11
1.38874e-11
1.61284e-11
1.86706e-11
2.15437e-11
2.47787e-11
2.84074e-11
3.24621e-11
3.69754e-11
4.19798e-11
4.75069e-11
5.35872e-11
6.02494e-11
6.75197e-11
7.54212e-11
8.39731e-11
9.319e-11
1.03081e-10
1.13651e-10
1.24894e-10
1.36802e-10
1.49355e-10
1.62527e-10
1.7628e-10
1.90572e-10
2.05346e-10
2.20541e-10
2.36082e-10
2.51888e-10
2.67869e-10
2.83928e-10
2.99959e-10
3.15853e-10
3.31494e-10
3.46764e-10
3.61541e-10
3.75706e-10
3.89138e-10
4.0172e-10
4.13341e-10
4.23895e-10
4.33282e-10
4.41415e-10
4.48214e-10
4.53615e-10
4.57564e-10
4.60023e-10
4.60965e-10
4.60383e-10
4.58282e-10
4.54682e-10
4.4962e-10
4.43144e-10
4.35318e-10
4.26217e-10
4.15927e-10
4.04545e-10
3.92174e-10
3.78926e-10
3.64916e-10
3.50265e-10
3.35092e-10
3.19519e-10
3.03665e-10
2.87646e-10
2.71574e-10
2.55555e-10
2.3969e-10
2.24069e-10
2.08777e-10
1.9389e-10
1.79472e-10
1.65581e-10
1.52263e-10
1.39557e-10
1.27492e-10
1.16089e-10
1.05359e-10
9.5308e-11
8.5934e-11
7.72287e-11
6.91786e-11
6.17654e-11
5.49668e-11
4.87571e-11
4.31081e-11
3.79895e-11
3.33699e-11
2.92169e-11
2.54976e-11
2.21797e-11
1.92309e-11
1.66202e-11
1.43175e-11
1.22939e-11
1.05222e-11
8.97678e-12
7.63364e-12
6.47054e-12
5.467e-12
4.60425e-12
3.86518e-12
3.23432e-12
2.69775e-12
2.24298e-12
1.85889e-12
1.53564e-12
1.26455e-12
1.03798e-12
8.49291e-13
6.92682e-13
5.6315e-13
4.56381e-13
3.68678e-13
2.96881e-13
2.38305e-13
1.90679e-13
1.52087e-13
1.20921e-13
9.58362e-14
7.57148e-14
5.96285e-14
4.68114e-14
3.6633e-14
2.85771e-14
2.22224e-14
1.72262e-14
1.33112e-14
1.02535e-14
7.87324e-15
6.02649e-15
4.59836e-15
3.49757e-15
2.65186e-15
2.00422e-15
1.50985e-15
1.13363e-15
8.4819e-16
6.32199e-16
4.69121e-16
3.46151e-16
2.53389e-16
1.83171e-16
1.29545e-16
8.78413e-17
5.43298e-17
2.59361e-17
0
0
3.52058e-17
7.37498e-17
1.19245e-16
1.75868e-16
2.48686e-16
3.44042e-16
4.70028e-16
6.37058e-16
8.58593e-16
1.15204e-15
1.5399e-15
2.05117e-15
2.72311e-15
3.6035e-15
4.75332e-15
6.25019e-15
8.19254e-15
1.07047e-14
1.39432e-14
1.81043e-14
2.34333e-14
3.02354e-14
3.88892e-14
4.98622e-14
6.37299e-14
8.11975e-14
1.03126e-13
1.30564e-13
1.6478e-13
2.07304e-13
2.59978e-13
3.25004e-13
4.05007e-13
5.03105e-13
6.2298e-13
7.6897e-13
9.46156e-13
1.16047e-12
1.4188e-12
1.72912e-12
2.10059e-12
2.54373e-12
3.07053e-12
3.6946e-12
4.4313e-12
5.29789e-12
6.31369e-12
7.50014e-12
8.88099e-12
1.04823e-11
1.23327e-11
1.4463e-11
1.69067e-11
1.96998e-11
2.28803e-11
2.64885e-11
3.05669e-11
3.51592e-11
4.03107e-11
4.60675e-11
5.24758e-11
5.9582e-11
6.74309e-11
7.60661e-11
8.55284e-11
9.5855e-11
1.07079e-10
1.19227e-10
1.32321e-10
1.46375e-10
1.61392e-10
1.77368e-10
1.94289e-10
2.12128e-10
2.30847e-10
2.50394e-10
2.70707e-10
2.91707e-10
3.13305e-10
3.35397e-10
3.57867e-10
3.80588e-10
4.03419e-10
4.26212e-10
4.48811e-10
4.71051e-10
4.92764e-10
5.13778e-10
5.33921e-10
5.53023e-10
5.70918e-10
5.87446e-10
6.02455e-10
6.15808e-10
6.27376e-10
6.37049e-10
6.44732e-10
6.50351e-10
6.5385e-10
6.55193e-10
6.54368e-10
6.51383e-10
6.46266e-10
6.39069e-10
6.29862e-10
6.18734e-10
6.05793e-10
5.91162e-10
5.74977e-10
5.57387e-10
5.38549e-10
5.18629e-10
4.97795e-10
4.76222e-10
4.54079e-10
4.31537e-10
4.08761e-10
3.85911e-10
3.63137e-10
3.40581e-10
3.18374e-10
2.96636e-10
2.75473e-10
2.54979e-10
2.35233e-10
2.16304e-10
1.98246e-10
1.81099e-10
1.64892e-10
1.49645e-10
1.35362e-10
1.22042e-10
1.09673e-10
9.82359e-11
8.77041e-11
7.80459e-11
6.92249e-11
6.12009e-11
5.39308e-11
4.73698e-11
4.14718e-11
3.61902e-11
3.14788e-11
2.7292e-11
2.35854e-11
2.03163e-11
1.74437e-11
1.49288e-11
1.27353e-11
1.08291e-11
9.17845e-12
7.75439e-12
6.53019e-12
5.48158e-12
4.58657e-12
3.82538e-12
3.18029e-12
2.63551e-12
2.17706e-12
1.7926e-12
1.47132e-12
1.20376e-12
9.81715e-13
7.98075e-13
6.4672e-13
5.224e-13
4.20636e-13
3.37619e-13
2.70125e-13
2.15438e-13
1.71277e-13
1.35737e-13
1.0723e-13
8.44423e-14
6.62867e-14
5.18701e-14
4.04607e-14
3.14612e-14
2.43863e-14
1.88427e-14
1.45133e-14
1.11435e-14
8.52909e-15
6.50748e-15
4.94935e-15
3.75236e-15
2.83578e-15
2.13615e-15
1.60378e-15
1.19988e-15
8.94282e-16
6.6356e-16
4.89596e-16
3.58374e-16
2.59051e-16
1.83202e-16
1.2422e-16
7.68282e-17
3.66759e-17
0
0
4.869e-17
1.01999e-16
1.64925e-16
2.43248e-16
3.4398e-16
4.75901e-16
6.50209e-16
8.81321e-16
1.18787e-15
1.59396e-15
2.13075e-15
2.83837e-15
3.76845e-15
4.98714e-15
6.57892e-15
8.65132e-15
1.13407e-14
1.48193e-14
1.9304e-14
2.50668e-14
3.24476e-14
4.18696e-14
5.38573e-14
6.90591e-14
8.82727e-14
1.12476e-13
1.42864e-13
1.80889e-13
2.28311e-13
2.87254e-13
3.60272e-13
4.5042e-13
5.61343e-13
6.97364e-13
8.63598e-13
1.06606e-12
1.31182e-12
1.60909e-12
1.96746e-12
2.39798e-12
2.91339e-12
3.5283e-12
4.25937e-12
5.12549e-12
6.14802e-12
7.35097e-12
8.76115e-12
1.04084e-11
1.23257e-11
1.45494e-11
1.71191e-11
2.00778e-11
2.34722e-11
2.73521e-11
3.17707e-11
3.67839e-11
4.24508e-11
4.88323e-11
5.59916e-11
6.39927e-11
7.29002e-11
8.27783e-11
9.369e-11
1.05696e-10
1.18852e-10
1.33212e-10
1.4882e-10
1.65715e-10
1.83927e-10
2.03474e-10
2.24364e-10
2.4659e-10
2.70131e-10
2.9495e-10
3.20996e-10
3.48197e-10
3.76464e-10
4.0569e-10
4.35749e-10
4.66498e-10
4.97774e-10
5.294e-10
5.61183e-10
5.92915e-10
6.24377e-10
6.55341e-10
6.85572e-10
7.14832e-10
7.4288e-10
7.6948e-10
7.944e-10
8.17418e-10
8.38322e-10
8.56919e-10
8.73032e-10
8.86506e-10
8.9721e-10
9.05039e-10
9.09916e-10
9.11791e-10
9.10646e-10
9.06493e-10
8.99372e-10
8.89353e-10
8.76536e-10
8.61044e-10
8.43027e-10
8.22656e-10
8.00122e-10
7.75631e-10
7.49403e-10
7.21668e-10
6.92663e-10
6.62627e-10
6.31799e-10
6.00417e-10
5.6871e-10
5.369e-10
5.05198e-10
4.738e-10
4.4289e-10
4.12632e-10
3.83177e-10
3.54653e-10
3.27174e-10
3.00831e-10
2.75702e-10
2.51842e-10
2.29292e-10
2.08078e-10
1.88207e-10
1.69677e-10
1.52471e-10
1.36562e-10
1.21913e-10
1.08481e-10
9.62135e-11
8.50553e-11
7.49464e-11
6.58241e-11
5.76242e-11
5.02819e-11
4.37328e-11
3.79133e-11
3.27617e-11
2.82185e-11
2.42266e-11
2.07323e-11
1.76847e-11
1.50364e-11
1.27434e-11
1.07654e-11
9.0651e-12
7.60881e-12
6.36596e-12
5.30902e-12
4.41336e-12
3.65705e-12
3.02065e-12
2.48701e-12
2.0411e-12
1.66979e-12
1.36167e-12
1.10686e-12
8.96868e-13
7.24402e-13
5.83239e-13
4.68092e-13
3.74484e-13
2.98644e-13
2.37408e-13
1.8813e-13
1.48608e-13
1.17017e-13
9.18506e-14
7.18684e-14
5.60557e-14
4.35841e-14
3.37803e-14
2.60991e-14
2.0101e-14
1.54326e-14
1.1811e-14
9.01085e-15
6.85282e-15
5.1951e-15
3.92582e-15
2.95705e-15
2.21994e-15
1.66076e-15
1.23769e-15
9.18312e-16
6.77517e-16
4.95899e-16
3.58442e-16
2.5348e-16
1.71865e-16
1.06293e-16
5.07407e-17
0
0
6.64976e-17
1.39305e-16
2.25255e-16
3.32242e-16
4.6985e-16
6.50081e-16
8.88241e-16
1.20404e-15
1.62295e-15
2.17793e-15
2.91158e-15
3.8788e-15
5.15019e-15
6.81624e-15
8.99252e-15
1.18261e-14
1.55036e-14
2.02608e-14
2.63943e-14
3.42766e-14
4.43729e-14
5.72624e-14
7.36635e-14
9.44637e-14
1.20756e-13
1.53879e-13
1.95469e-13
2.47517e-13
3.12434e-13
3.93131e-13
4.93106e-13
6.16548e-13
7.68451e-13
9.54745e-13
1.18244e-12
1.45979e-12
1.79647e-12
2.20378e-12
2.69484e-12
3.28482e-12
3.99123e-12
4.83408e-12
5.83624e-12
7.02366e-12
8.42566e-12
1.00752e-11
1.20091e-11
1.42683e-11
1.68982e-11
1.99486e-11
2.3474e-11
2.75337e-11
3.21914e-11
3.7516e-11
4.35802e-11
5.04614e-11
5.82405e-11
6.70015e-11
7.6831e-11
8.78174e-11
1.0005e-10
1.13616e-10
1.28603e-10
1.45094e-10
1.63167e-10
1.82895e-10
2.0434e-10
2.27556e-10
2.52583e-10
2.79446e-10
3.08157e-10
3.38706e-10
3.71066e-10
4.05187e-10
4.40994e-10
4.78393e-10
5.1726e-10
5.57449e-10
5.98786e-10
6.41073e-10
6.8409e-10
7.27589e-10
7.71307e-10
8.14956e-10
8.58237e-10
9.00836e-10
9.42428e-10
9.82686e-10
1.02128e-09
1.05788e-09
1.09217e-09
1.12385e-09
1.15262e-09
1.17821e-09
1.20039e-09
1.21894e-09
1.23367e-09
1.24445e-09
1.25117e-09
1.25376e-09
1.25219e-09
1.24648e-09
1.23669e-09
1.22291e-09
1.20527e-09
1.18396e-09
1.15918e-09
1.13115e-09
1.10015e-09
1.06645e-09
1.03037e-09
9.92216e-10
9.52312e-10
9.10992e-10
8.68583e-10
8.25412e-10
7.81796e-10
7.3804e-10
6.94433e-10
6.51248e-10
6.08734e-10
5.67121e-10
5.26611e-10
4.87386e-10
4.49598e-10
4.13377e-10
3.78824e-10
3.4602e-10
3.15019e-10
2.85855e-10
2.5854e-10
2.3307e-10
2.09422e-10
1.87557e-10
1.67427e-10
1.48969e-10
1.32113e-10
1.16783e-10
1.02895e-10
9.03642e-11
7.9101e-11
6.90167e-11
6.00225e-11
5.20311e-11
4.49574e-11
3.87197e-11
3.32395e-11
2.84428e-11
2.42596e-11
2.06249e-11
1.74782e-11
1.47639e-11
1.2431e-11
1.0433e-11
8.72807e-12
7.27829e-12
6.04986e-12
5.01265e-12
4.13996e-12
3.40827e-12
2.79693e-12
2.28791e-12
1.86555e-12
1.51632e-12
1.22853e-12
9.92196e-13
7.98776e-13
6.41017e-13
5.12782e-13
4.08898e-13
3.25025e-13
2.57538e-13
2.03417e-13
1.60161e-13
1.25704e-13
9.83485e-14
7.67029e-14
5.96324e-14
4.62148e-14
3.57032e-14
2.74956e-14
2.1108e-14
1.61533e-14
1.23226e-14
9.37071e-15
7.10334e-15
5.36741e-15
4.04259e-15
3.03466e-15
2.27009e-15
1.69167e-15
1.25506e-15
9.259e-16
6.77656e-16
4.89789e-16
3.46347e-16
2.34821e-16
1.45224e-16
6.93239e-17
0
0
9.00961e-17
1.88746e-16
3.05208e-16
4.5019e-16
6.36684e-16
8.80964e-16
1.20379e-15
1.63188e-15
2.19981e-15
2.95227e-15
3.94706e-15
5.25867e-15
6.98291e-15
9.24257e-15
1.21945e-14
1.60384e-14
2.10275e-14
2.74819e-14
3.58046e-14
4.65012e-14
6.02035e-14
7.76982e-14
9.99614e-14
1.28199e-13
1.63895e-13
2.08871e-13
2.65349e-13
3.36035e-13
4.24207e-13
5.33823e-13
6.6964e-13
8.37355e-13
1.04376e-12
1.29692e-12
1.60638e-12
1.98336e-12
2.44103e-12
2.99477e-12
3.66244e-12
4.46471e-12
5.42538e-12
6.57173e-12
7.93492e-12
9.55027e-12
1.14577e-11
1.37022e-11
1.63339e-11
1.94086e-11
2.29882e-11
2.71406e-11
3.19401e-11
3.74675e-11
4.38099e-11
5.1061e-11
5.93204e-11
6.86933e-11
7.92903e-11
9.12261e-11
1.04619e-10
1.1959e-10
1.3626e-10
1.54749e-10
1.75177e-10
1.97658e-10
2.22297e-10
2.49195e-10
2.78436e-10
3.10095e-10
3.44226e-10
3.80865e-10
4.20027e-10
4.61701e-10
5.05847e-10
5.52399e-10
6.01257e-10
6.52289e-10
7.05329e-10
7.60176e-10
8.16595e-10
8.74314e-10
9.33032e-10
9.92414e-10
1.0521e-09
1.11169e-09
1.17078e-09
1.22895e-09
1.28574e-09
1.34072e-09
1.39342e-09
1.44341e-09
1.49024e-09
1.53351e-09
1.5728e-09
1.60776e-09
1.63806e-09
1.6634e-09
1.68354e-09
1.69827e-09
1.70745e-09
1.71099e-09
1.70886e-09
1.70107e-09
1.68771e-09
1.6689e-09
1.64483e-09
1.61573e-09
1.58188e-09
1.54362e-09
1.50129e-09
1.45528e-09
1.40601e-09
1.35391e-09
1.29942e-09
1.24301e-09
1.1851e-09
1.12616e-09
1.06661e-09
1.00688e-09
9.47346e-10
8.88393e-10
8.30359e-10
7.73557e-10
7.18265e-10
6.64729e-10
6.13157e-10
5.63726e-10
5.16575e-10
4.71813e-10
4.29514e-10
3.89724e-10
3.52461e-10
3.17716e-10
2.85459e-10
2.55637e-10
2.28182e-10
2.03011e-10
1.80027e-10
1.59124e-10
1.4019e-10
1.23106e-10
1.07753e-10
9.40079e-11
8.17498e-11
7.08594e-11
6.12207e-11
5.27217e-11
4.52557e-11
3.87213e-11
3.30234e-11
2.8073e-11
2.37878e-11
2.00917e-11
1.69153e-11
1.41953e-11
1.18743e-11
9.901e-12
8.22912e-12
6.81762e-12
5.63015e-12
4.63463e-12
3.80294e-12
3.11053e-12
2.53607e-12
2.06111e-12
1.66977e-12
1.34842e-12
1.08545e-12
8.7099e-13
6.96682e-13
5.55488e-13
4.41505e-13
3.49799e-13
2.76263e-13
2.17496e-13
1.70689e-13
1.33531e-13
1.04133e-13
8.09503e-14
6.27303e-14
4.84579e-14
3.73149e-14
2.86436e-14
2.19182e-14
1.6719e-14
1.27128e-14
9.63596e-15
7.2805e-15
5.48303e-15
4.11562e-15
3.07846e-15
2.2939e-15
1.70172e-15
1.25533e-15
9.187e-16
6.63967e-16
4.69488e-16
3.18296e-16
1.96842e-16
9.39623e-17
0
0
1.21382e-16
2.54292e-16
4.11213e-16
6.06577e-16
8.57903e-16
1.18713e-15
1.62226e-15
2.19933e-15
2.96496e-15
3.97946e-15
5.32078e-15
7.08945e-15
9.41474e-15
1.24624e-14
1.64441e-14
2.16294e-14
2.83601e-14
3.70685e-14
4.82987e-14
6.27335e-14
8.12263e-14
1.0484e-13
1.34892e-13
1.73014e-13
2.21209e-13
2.8194e-13
3.5821e-13
4.53677e-13
5.72773e-13
7.2085e-13
9.0434e-13
1.13095e-12
1.40987e-12
1.752e-12
2.17026e-12
2.67984e-12
3.29857e-12
4.04726e-12
4.95008e-12
6.03502e-12
7.33433e-12
8.88495e-12
1.07291e-11
1.29146e-11
1.54956e-11
1.85329e-11
2.20947e-11
2.62566e-11
3.11023e-11
3.6724e-11
4.32226e-11
5.07076e-11
5.92972e-11
6.91184e-11
8.03065e-11
9.30045e-11
1.07362e-10
1.23536e-10
1.41685e-10
1.61975e-10
1.84571e-10
2.09635e-10
2.3733e-10
2.6781e-10
3.01221e-10
3.37697e-10
3.77355e-10
4.20296e-10
4.66594e-10
5.163e-10
5.69432e-10
6.25976e-10
6.85881e-10
7.49055e-10
8.15363e-10
8.84628e-10
9.56624e-10
1.03108e-09
1.10767e-09
1.18603e-09
1.26576e-09
1.34639e-09
1.42744e-09
1.50837e-09
1.58862e-09
1.66762e-09
1.74476e-09
1.81943e-09
1.89103e-09
1.95893e-09
2.02256e-09
2.08134e-09
2.13473e-09
2.18224e-09
2.22341e-09
2.25784e-09
2.28521e-09
2.30524e-09
2.31773e-09
2.32255e-09
2.31967e-09
2.3091e-09
2.29096e-09
2.26542e-09
2.23273e-09
2.19321e-09
2.14724e-09
2.09527e-09
2.03777e-09
1.97528e-09
1.90837e-09
1.8376e-09
1.76361e-09
1.68698e-09
1.60834e-09
1.52829e-09
1.44743e-09
1.36631e-09
1.28547e-09
1.20542e-09
1.12662e-09
1.0495e-09
9.7443e-10
9.01749e-10
8.31741e-10
7.64641e-10
7.00642e-10
6.39888e-10
5.82482e-10
5.28485e-10
4.77921e-10
4.30777e-10
3.87011e-10
3.46554e-10
3.09311e-10
2.75168e-10
2.43994e-10
2.15646e-10
1.8997e-10
1.66806e-10
1.4599e-10
1.27356e-10
1.1074e-10
9.59786e-11
8.29153e-11
7.13979e-11
6.12813e-11
5.2428e-11
4.47088e-11
3.80031e-11
3.21989e-11
2.71932e-11
2.28918e-11
1.92088e-11
1.60666e-11
1.33952e-11
1.11322e-11
9.2218e-12
7.6148e-12
6.26772e-12
5.14245e-12
4.20573e-12
3.42866e-12
2.78625e-12
2.25699e-12
1.82245e-12
1.46689e-12
1.17694e-12
9.4131e-13
7.50464e-13
5.96414e-13
4.72484e-13
3.73121e-13
2.93721e-13
2.30487e-13
1.80294e-13
1.40587e-13
1.09278e-13
8.46745e-14
6.54033e-14
5.03589e-14
3.8653e-14
2.95747e-14
2.25572e-14
1.71506e-14
1.29985e-14
9.82027e-15
7.39513e-15
5.5504e-15
4.15132e-15
3.09309e-15
2.29442e-15
1.69242e-15
1.2385e-15
8.95032e-16
6.32837e-16
4.2902e-16
2.65307e-16
1.26642e-16
0
0
1.62805e-16
3.4108e-16
5.51577e-16
8.13665e-16
1.15086e-15
1.59262e-15
2.17652e-15
2.95097e-15
3.97856e-15
5.34031e-15
7.14089e-15
9.51538e-15
1.26374e-14
1.67297e-14
2.20767e-14
2.90407e-14
3.80812e-14
4.97791e-14
6.4866e-14
8.426e-14
1.09109e-13
1.40841e-13
1.81231e-13
2.3247e-13
2.97257e-13
3.78903e-13
4.81451e-13
6.09825e-13
7.69989e-13
9.6915e-13
1.21597e-12
1.52082e-12
1.89608e-12
2.35646e-12
2.91932e-12
3.60517e-12
4.438e-12
5.44588e-12
6.66139e-12
8.12228e-12
9.872e-12
1.19604e-11
1.44444e-11
1.73885e-11
2.08659e-11
2.49586e-11
2.97584e-11
3.53675e-11
4.18991e-11
4.94775e-11
5.8239e-11
6.83314e-11
7.99147e-11
9.31603e-11
1.08251e-10
1.2538e-10
1.4475e-10
1.66572e-10
1.91064e-10
2.18446e-10
2.48943e-10
2.82775e-10
3.20162e-10
3.61313e-10
4.06426e-10
4.55682e-10
5.09241e-10
5.67238e-10
6.29776e-10
6.96922e-10
7.68703e-10
8.45101e-10
9.26047e-10
1.01142e-09
1.10103e-09
1.19465e-09
1.29196e-09
1.39261e-09
1.49615e-09
1.60209e-09
1.70989e-09
1.81891e-09
1.92851e-09
2.03795e-09
2.14649e-09
2.25333e-09
2.35767e-09
2.45868e-09
2.55552e-09
2.64739e-09
2.73347e-09
2.81299e-09
2.88523e-09
2.94951e-09
3.00522e-09
3.05183e-09
3.08887e-09
3.11598e-09
3.1329e-09
3.13945e-09
3.13557e-09
3.12129e-09
3.09676e-09
3.06222e-09
3.01801e-09
2.96457e-09
2.9024e-09
2.83211e-09
2.75434e-09
2.66982e-09
2.57931e-09
2.48361e-09
2.38352e-09
2.27989e-09
2.17354e-09
2.06529e-09
1.95593e-09
1.84623e-09
1.73692e-09
1.62867e-09
1.52213e-09
1.41786e-09
1.31637e-09
1.21812e-09
1.12348e-09
1.03278e-09
9.46276e-10
8.64165e-10
7.86584e-10
7.13616e-10
6.45291e-10
5.81594e-10
5.22465e-10
4.67811e-10
4.17503e-10
3.71386e-10
3.29284e-10
2.91002e-10
2.56332e-10
2.25056e-10
1.96953e-10
1.71798e-10
1.49369e-10
1.29447e-10
1.11818e-10
9.62763e-11
8.26265e-11
7.06825e-11
6.02697e-11
5.12248e-11
4.33969e-11
3.66467e-11
3.08468e-11
2.58813e-11
2.16453e-11
1.80445e-11
1.49944e-11
1.24199e-11
1.02546e-11
8.43961e-12
6.92369e-12
5.66191e-12
4.6153e-12
3.75016e-12
3.03749e-12
2.45242e-12
1.97374e-12
1.58345e-12
1.2663e-12
1.00946e-12
8.02163e-13
6.35416e-13
5.01737e-13
3.94928e-13
3.09874e-13
2.4237e-13
1.88972e-13
1.46874e-13
1.13794e-13
8.78873e-14
6.76646e-14
5.1931e-14
3.97304e-14
3.03004e-14
2.30357e-14
1.74574e-14
1.31877e-14
9.93008e-15
7.45235e-15
5.57338e-15
4.15229e-15
3.07988e-15
2.27163e-15
1.66223e-15
1.20117e-15
8.49244e-16
5.75701e-16
3.56002e-16
1.6993e-16
0
0
2.17531e-16
4.55742e-16
7.37028e-16
1.08729e-15
1.53796e-15
2.12845e-15
2.90901e-15
3.9444e-15
5.31835e-15
7.13924e-15
9.54718e-15
1.27229e-14
1.68988e-14
2.2373e-14
2.95263e-14
3.88437e-14
5.09405e-14
6.65947e-14
8.67862e-14
1.12745e-13
1.46008e-13
1.8849e-13
2.42568e-13
3.1118e-13
3.97942e-13
5.07293e-13
6.44656e-13
8.16629e-13
1.03122e-12
1.29808e-12
1.62884e-12
2.03741e-12
2.54041e-12
3.15756e-12
3.9122e-12
4.83182e-12
5.94867e-12
7.30041e-12
8.93082e-12
1.08906e-11
1.32381e-11
1.60404e-11
1.93738e-11
2.33252e-11
2.79928e-11
3.3487e-11
3.99312e-11
4.74629e-11
5.62343e-11
6.64128e-11
7.81814e-11
9.17394e-11
1.07302e-10
1.251e-10
1.4538e-10
1.68401e-10
1.94438e-10
2.23773e-10
2.56701e-10
2.93519e-10
3.34528e-10
3.80029e-10
4.30316e-10
4.85671e-10
5.46361e-10
6.12632e-10
6.84699e-10
7.62745e-10
8.4691e-10
9.37285e-10
1.03391e-09
1.13675e-09
1.24573e-09
1.36068e-09
1.48135e-09
1.60741e-09
1.73847e-09
1.87403e-09
2.0135e-09
2.15621e-09
2.30143e-09
2.44831e-09
2.59597e-09
2.74344e-09
2.88969e-09
3.03368e-09
3.17429e-09
3.31042e-09
3.44096e-09
3.56478e-09
3.68081e-09
3.78802e-09
3.88541e-09
3.97207e-09
4.04719e-09
4.11003e-09
4.15999e-09
4.19656e-09
4.21939e-09
4.22824e-09
4.22304e-09
4.20382e-09
4.17078e-09
4.12424e-09
4.06467e-09
3.99266e-09
3.90888e-09
3.81415e-09
3.70935e-09
3.59545e-09
3.47348e-09
3.3445e-09
3.20963e-09
3.06998e-09
2.92667e-09
2.7808e-09
2.63344e-09
2.48564e-09
2.33836e-09
2.19253e-09
2.04899e-09
1.90853e-09
1.77182e-09
1.63947e-09
1.512e-09
1.38985e-09
1.27336e-09
1.16278e-09
1.05832e-09
9.60074e-10
8.68087e-10
7.82337e-10
7.02744e-10
6.2918e-10
5.61472e-10
4.99411e-10
4.42757e-10
3.91248e-10
3.44603e-10
3.0253e-10
2.64728e-10
2.30896e-10
2.00732e-10
1.73942e-10
1.50239e-10
1.29344e-10
1.10995e-10
9.49408e-11
8.0946e-11
6.87911e-11
5.82728e-11
4.92036e-11
4.1412e-11
3.47421e-11
2.90528e-11
2.42171e-11
2.01215e-11
1.6665e-11
1.3758e-11
1.13218e-11
9.28716e-12
7.59384e-12
6.18945e-12
5.0287e-12
4.07262e-12
3.28781e-12
2.6458e-12
2.12239e-12
1.69711e-12
1.35275e-12
1.07484e-12
8.51323e-13
6.72152e-13
5.29011e-13
4.15037e-13
3.2459e-13
2.53053e-13
1.96659e-13
1.52352e-13
1.17655e-13
9.05737e-14
6.95065e-14
5.31716e-14
4.05475e-14
3.08232e-14
2.33568e-14
1.76426e-14
1.32834e-14
9.96807e-15
7.45415e-15
5.55304e-15
4.11852e-15
3.03745e-15
2.22244e-15
1.60589e-15
1.13532e-15
7.6959e-16
4.75882e-16
2.27148e-16
0
0
2.89638e-16
6.06822e-16
9.81392e-16
1.44785e-15
2.0481e-15
2.83464e-15
3.87447e-15
5.25389e-15
7.08454e-15
9.51092e-15
1.27199e-14
1.69524e-14
2.25185e-14
2.98157e-14
3.93523e-14
5.17752e-14
6.79056e-14
8.87816e-14
1.15711e-13
1.50336e-13
1.94708e-13
2.51386e-13
3.23541e-13
4.15098e-13
5.30889e-13
6.76842e-13
8.60203e-13
1.08979e-12
1.3763e-12
1.73265e-12
2.17437e-12
2.72008e-12
3.39199e-12
4.21647e-12
5.22475e-12
6.45361e-12
7.9462e-12
9.75291e-12
1.19324e-11
1.45524e-11
1.76912e-11
2.14384e-11
2.58965e-11
3.11818e-11
3.74257e-11
4.47762e-11
5.33988e-11
6.34778e-11
7.5217e-11
8.8841e-11
1.04595e-10
1.22747e-10
1.43586e-10
1.6742e-10
1.9458e-10
2.25417e-10
2.60295e-10
2.99598e-10
3.43718e-10
3.93056e-10
4.48018e-10
5.09005e-10
5.76414e-10
6.50625e-10
7.31997e-10
8.2086e-10
9.17505e-10
1.02218e-09
1.13507e-09
1.2563e-09
1.38593e-09
1.52392e-09
1.67014e-09
1.82439e-09
1.98633e-09
2.15553e-09
2.33145e-09
2.51341e-09
2.70064e-09
2.89225e-09
3.08722e-09
3.28446e-09
3.48274e-09
3.68078e-09
3.8772e-09
4.07058e-09
4.25946e-09
4.44232e-09
4.61767e-09
4.78401e-09
4.9399e-09
5.08394e-09
5.2148e-09
5.33125e-09
5.4322e-09
5.51666e-09
5.5838e-09
5.63297e-09
5.66368e-09
5.67561e-09
5.66865e-09
5.64286e-09
5.59851e-09
5.53602e-09
5.45603e-09
5.3593e-09
5.24678e-09
5.11955e-09
4.97879e-09
4.8258e-09
4.66198e-09
4.48875e-09
4.3076e-09
4.12004e-09
3.92757e-09
3.73167e-09
3.53378e-09
3.33529e-09
3.13752e-09
2.94171e-09
2.74898e-09
2.56039e-09
2.37685e-09
2.19917e-09
2.02806e-09
1.8641e-09
1.70774e-09
1.55934e-09
1.41914e-09
1.28731e-09
1.16388e-09
1.04883e-09
9.42047e-10
8.43363e-10
7.52543e-10
6.69304e-10
5.93326e-10
5.24253e-10
4.61709e-10
4.053e-10
3.54623e-10
3.09273e-10
2.68844e-10
2.32941e-10
2.01177e-10
1.73181e-10
1.48598e-10
1.27092e-10
1.08347e-10
9.20676e-11
7.7982e-11
6.58383e-11
5.54067e-11
4.64778e-11
3.88624e-11
3.23905e-11
2.69097e-11
2.22846e-11
1.83954e-11
1.51363e-11
1.24148e-11
1.01501e-11
8.27207e-12
6.72002e-12
5.44178e-12
4.39265e-12
3.53451e-12
2.83498e-12
2.26667e-12
1.80654e-12
1.43526e-12
1.13667e-12
8.97345e-13
7.06173e-13
5.53972e-13
4.33203e-13
3.37693e-13
2.6241e-13
2.03268e-13
1.5696e-13
1.2082e-13
9.27081e-14
7.09136e-14
5.4072e-14
4.11001e-14
3.11414e-14
2.35206e-14
1.77073e-14
1.32867e-14
9.93494e-15
7.40048e-15
5.48824e-15
4.04732e-15
2.96111e-15
2.13949e-15
1.51246e-15
1.02519e-15
6.33911e-16
3.02571e-16
0
0
3.84363e-16
8.053e-16
1.30243e-15
1.92158e-15
2.71839e-15
3.76259e-15
5.1432e-15
6.97487e-15
9.40594e-15
1.26284e-14
1.68907e-14
2.2513e-14
2.99075e-14
3.96029e-14
5.22747e-14
6.87835e-14
9.02213e-14
1.17969e-13
1.53767e-13
1.99799e-13
2.58797e-13
3.34163e-13
4.30121e-13
5.51895e-13
7.05919e-13
9.00085e-13
1.14404e-12
1.44954e-12
1.83083e-12
2.30511e-12
2.89309e-12
3.61958e-12
4.51417e-12
5.61203e-12
6.9548e-12
8.59153e-12
1.05797e-11
1.29867e-11
1.58906e-11
1.93819e-11
2.3565e-11
2.85597e-11
3.45025e-11
4.15488e-11
4.98743e-11
5.96764e-11
7.11764e-11
8.46203e-11
1.00281e-10
1.18458e-10
1.39479e-10
1.63703e-10
1.91515e-10
2.2333e-10
2.59588e-10
3.00759e-10
3.47332e-10
3.99819e-10
4.58745e-10
5.24648e-10
5.98071e-10
6.79553e-10
7.69623e-10
8.68793e-10
9.77544e-10
1.09632e-09
1.22551e-09
1.36545e-09
1.51638e-09
1.67849e-09
1.85183e-09
2.03638e-09
2.23196e-09
2.43828e-09
2.65492e-09
2.88129e-09
3.11665e-09
3.36013e-09
3.61068e-09
3.86711e-09
4.12805e-09