# vtk DataFile Version 3.0
2D field
ASCII
DATASET STRUCTURED_POINTS
DIMENSIONS 257 257 1
ORIGIN 0 0 0
SPACING 0.00390625 0.00390625 1
POINT_DATA 66049
SCALARS temperature double 1
LOOKUP_TABLE default
0
0
0
0
0
0
0
0
0
0
0
0
0
0
0
0
0
0
0
0
0
0
0
0
0
0
0
0
0
0
0
0
0
0
0
0
0
0
0
0
0
0
0
0
0
0
0
0
0
0
0
0
0
0
0
0
0
0
0
0
0
0
0
0
0
0
0
0
0
0
0
0
0
0
0
0
0
0
0
0
0
0
0
0
0
0
0
0
0
0
0
0
0
0
0
0
0
0
0
0
0
0
0
0
0
0
0
0
0
0
0
0
0
0
0
0
0
0
0
0
0
0
0
0
0
0
0
0
0
0
0
0
0
0
0
0
0
0
0
0
0
0
0
0
0
0
0
0
0
0
0
0
0
0
0
0
0
0
0
0
0
0
0
0
0
0
0
0
0
0
0
0
0
0
0
0
0
0
0
0
0
0
0
0
0
0
0
0
0
0
0
0
0
0
0
0
0
0
0
0
0
0
0
0
0
0
0
0
0
0
0
0
0
0
0
0
0
0
0
0
0
0
0
0
0
0
0
0
0
0
0
0
0
0
0
0
0
0
0
0
0
0
0
0
0
0
0
0
0
0
0
0
0
0
0
0
0
0
1.05358e-11
2.12613e-11
3.21805e-11
4.33279e-11
5.47771e-11
6.66442e-11
7.90836e-11
9.22801e-11
1.06438e-10
1.21771e-10
1.38491e-10
1.56808e-10
1.76918e-10
1.9901e-10
2.23263e-10
2.49848e-10
2.78928e-10
3.10662e-10
3.45203e-10
3.82698e-10
4.23287e-10
4.67103e-10
5.14267e-10
5.64889e-10
6.19066e-10
6.76877e-10
7.38383e-10
8.03623e-10
8.72613e-10
9.45345e-10
1.02178e-09
1.10186e-09
1.18547e-09
1.27249e-09
1.36276e-09
1.45607e-09
1.55218e-09
1.65083e-09
1.75171e-09
1.85448e-09
1.95875e-09
2.06413e-09
2.17016e-09
2.27639e-09
2.38232e-09
2.48744e-09
2.59122e-09
2.69312e-09
2.79258e-09
2.88905e-09
2.98197e-09
3.07079e-09
3.15497e-09
3.23401e-09
3.30739e-09
3.37464e-09
3.43534e-09
3.48908e-09
3.53551e-09
3.5743e-09
3.6052e-09
3.628e-09
3.64253e-09
3.64871e-09
3.64648e-09
3.63586e-09
3.61693e-09
3.58981e-09
3.55469e-09
3.51182e-09
3.46147e-09
3.40399e-09
3.33976e-09
3.2692e-09
3.19276e-09
3.11093e-09
3.02422e-09
2.93316e-09
2.83829e-09
2.74016e-09
2.63934e-09
2.53638e-09
2.43182e-09
2.3262e-09
2.22005e-09
2.11386e-09
2.00812e-09
1.90327e-09
1.79975e-09
1.69794e-09
1.5982e-09
1.50086e-09
1.4062e-09
1.31448e-09
1.22591e-09
1.14067e-09
1.05892e-09
9.80769e-10
9.06291e-10
8.3554e-10
7.68539e-10
7.05283e-10
6.45744e-10
5.89869e-10
5.37589e-10
4.88814e-10
4.43441e-10
4.01353e-10
3.62424e-10
3.26517e-10
2.9349e-10
2.63197e-10
2.35487e-10
2.10209e-10
1.87212e-10
1.66347e-10
1.47468e-10
1.3043e-10
1.15095e-10
1.01329e-10
8.9004e-11
7.79982e-11
6.81959e-11
5.94883e-11
5.17729e-11
4.49545e-11
3.89441e-11
3.36597e-11
2.90253e-11
2.49713e-11
2.14341e-11
1.83556e-11
1.5683e-11
1.33687e-11
1.13697e-11
9.64732e-12
8.167e-12
6.89791e-12
5.81261e-12
4.88679e-12
4.09897e-12
3.43023e-12
2.86399e-12
2.38571e-12
1.98273e-12
1.64402e-12
1.36003e-12
1.12251e-12
9.24338e-13
7.59397e-13
6.22451e-13
5.09027e-13
4.15312e-13
3.3807e-13
2.7456e-13
2.22467e-13
1.79843e-13
1.45051e-13
1.1672e-13
9.37059e-14
7.50565e-14
5.99802e-14
4.78218e-14
3.80402e-14
3.01896e-14
2.3904e-14
1.88835e-14
1.4883e-14
1.17031e-14
9.18134e-15
7.18639e-15
5.61195e-15
4.37235e-15
3.39871e-15
2.6358e-15
2.03943e-15
1.57435e-15
1.21253e-15
9.31718e-16
7.14288e-16
5.46336e-16
4.16912e-16
3.17415e-16
2.41106e-16
1.82721e-16
1.38154e-16
1.04217e-16
7.84356e-17
5.88958e-17
4.41218e-17
3.29777e-17
2.45915e-17
1.82957e-17
1.35803e-17
1.0057e-17
7.43063e-18
5.47747e-18
4.0284e-18
2.95585e-18
2.16387e-18
1.58044e-18
1.15165e-18
8.37265e-19
6.07298e-19
4.3948e-19
3.17303e-19
2.28563e-19
1.64262e-19
1.17778e-19
8.42539e-20
6.01331e-20
4.28188e-20
3.04195e-20
2.1561e-20
1.52469e-20
1.0757e-20
7.57184e-21
5.3175e-21
3.72573e-21
2.60442e-21
1.81639e-21
1.26388e-21
8.77403e-22
6.07701e-22
4.19931e-22
2.8951e-22
1.99134e-22
1.36655e-22
9.35627e-23
6.39112e-23
4.35561e-23
2.96154e-23
2.00902e-23
1.35971e-23
9.18136e-24
6.18536e-24
4.15738e-24
2.78786e-24
1.86518e-24
1.24499e-24
8.29102e-25
5.50868e-25
3.6516e-25
2.41498e-25
1.59344e-25
1.04892e-25
6.88815e-26
4.5119e-26
2.94682e-26
1.91727e-26
1.23977e-26
7.92086e-27
4.92378e-27
2.85023e-27
1.30832e-27
0
0
2.18869e-11
4.41679e-11
6.68514e-11
9.00088e-11
1.13793e-10
1.38446e-10
1.64288e-10
1.91702e-10
2.21113e-10
2.52965e-10
2.87701e-10
3.25751e-10
3.67528e-10
4.13422e-10
4.63805e-10
5.19032e-10
5.79443e-10
6.45367e-10
7.17122e-10
7.95014e-10
8.79333e-10
9.70355e-10
1.06833e-09
1.1735e-09
1.28604e-09
1.40614e-09
1.53391e-09
1.66944e-09
1.81276e-09
1.96385e-09
2.12264e-09
2.28898e-09
2.46268e-09
2.64346e-09
2.83098e-09
3.02482e-09
3.22449e-09
3.42942e-09
3.63899e-09
3.85247e-09
4.06909e-09
4.28799e-09
4.50827e-09
4.72895e-09
4.94901e-09
5.16739e-09
5.38298e-09
5.59466e-09
5.80127e-09
6.00167e-09
6.1947e-09
6.37922e-09
6.5541e-09
6.71829e-09
6.87073e-09
7.01045e-09
7.13654e-09
7.24818e-09
7.34462e-09
7.42521e-09
7.4894e-09
7.53676e-09
7.56696e-09
7.57978e-09
7.57515e-09
7.55309e-09
7.51376e-09
7.45743e-09
7.38448e-09
7.29541e-09
7.19082e-09
7.07142e-09
6.93798e-09
6.7914e-09
6.63261e-09
6.46261e-09
6.28248e-09
6.09331e-09
5.89623e-09
5.69239e-09
5.48294e-09
5.26904e-09
5.05183e-09
4.83242e-09
4.6119e-09
4.39131e-09
4.17164e-09
3.95384e-09
3.73879e-09
3.52729e-09
3.32009e-09
3.11787e-09
2.92122e-09
2.73068e-09
2.54669e-09
2.36963e-09
2.1998e-09
2.03744e-09
1.88272e-09
1.73574e-09
1.59656e-09
1.46515e-09
1.34146e-09
1.22539e-09
1.11678e-09
1.01546e-09
9.21201e-10
8.33769e-10
7.52897e-10
6.78305e-10
6.09695e-10
5.46763e-10
4.89199e-10
4.36686e-10
3.88913e-10
3.45569e-10
3.06349e-10
2.70954e-10
2.39097e-10
2.105e-10
1.84897e-10
1.62033e-10
1.4167e-10
1.23581e-10
1.07553e-10
9.33883e-11
8.09025e-11
6.99245e-11
6.02971e-11
5.18754e-11
4.45272e-11
3.81319e-11
3.25799e-11
2.77722e-11
2.36194e-11
2.00413e-11
1.69661e-11
1.43297e-11
1.20751e-11
1.01518e-11
8.5152e-12
7.12597e-12
5.94966e-12
4.95609e-12
4.11893e-12
3.4153e-12
2.82534e-12
2.33191e-12
1.92022e-12
1.57757e-12
1.29308e-12
1.05745e-12
8.62771e-13
7.02308e-13
5.70372e-13
4.62155e-13
3.73607e-13
3.01329e-13
2.42474e-13
1.94665e-13
1.55923e-13
1.24603e-13
9.93454e-14
7.9025e-14
6.27161e-14
4.96584e-14
3.92287e-14
3.09182e-14
2.43121e-14
1.90734e-14
1.49291e-14
1.16583e-14
9.08317e-15
7.06053e-15
5.47564e-15
4.23673e-15
3.27058e-15
2.51894e-15
1.93556e-15
1.48387e-15
1.13497e-15
8.661e-16
6.59403e-16
5.00878e-16
3.79587e-16
2.87004e-16
2.16503e-16
1.62943e-16
1.22351e-16
9.16595e-17
6.85085e-17
5.10869e-17
3.80078e-17
2.8212e-17
2.08926e-17
1.54365e-17
1.1379e-17
8.36869e-18
6.14056e-18
4.49527e-18
3.28324e-18
2.39247e-18
1.73935e-18
1.26162e-18
9.12987e-19
6.59173e-19
4.74823e-19
3.41242e-19
2.44675e-19
1.75031e-19
1.24922e-19
8.89528e-20
6.31943e-20
4.47913e-20
3.16743e-20
2.2347e-20
1.573e-20
1.10467e-20
7.73993e-21
5.41051e-21
3.77343e-21
2.62562e-21
1.82274e-21
1.26246e-21
8.72377e-22
6.01436e-22
4.13687e-22
2.83891e-22
1.9437e-22
1.32771e-22
9.04848e-23
6.1524e-23
4.1736e-23
2.82471e-23
1.90737e-23
1.28497e-23
8.63668e-24
5.7916e-24
3.87478e-24
2.58639e-24
1.72241e-24
1.14439e-24
7.58597e-25
5.01698e-25
3.31028e-25
2.17906e-25
1.43097e-25
9.3732e-26
6.12183e-26
3.983e-26
2.57554e-26
1.64551e-26
1.02289e-26
5.92118e-27
2.71795e-27
0
0
3.49299e-11
7.04889e-11
1.0669e-10
1.43648e-10
1.81607e-10
2.20951e-10
2.62193e-10
3.05944e-10
3.52883e-10
4.03717e-10
4.59153e-10
5.19879e-10
5.86552e-10
6.59797e-10
7.40205e-10
8.28343e-10
9.24755e-10
1.02997e-09
1.14448e-09
1.26879e-09
1.40336e-09
1.54863e-09
1.70499e-09
1.87282e-09
2.05244e-09
2.24411e-09
2.44802e-09
2.66431e-09
2.89304e-09
3.13418e-09
3.38759e-09
3.65307e-09
3.93028e-09
4.21879e-09
4.51805e-09
4.82741e-09
5.14607e-09
5.47313e-09
5.80758e-09
6.14829e-09
6.49399e-09
6.84334e-09
7.19489e-09
7.54708e-09
7.89828e-09
8.2468e-09
8.59087e-09
8.92869e-09
9.25844e-09
9.57826e-09
9.88632e-09
1.01808e-08
1.04599e-08
1.07219e-08
1.09652e-08
1.11882e-08
1.13894e-08
1.15676e-08
1.17215e-08
1.18501e-08
1.19526e-08
1.20282e-08
1.20763e-08
1.20968e-08
1.20894e-08
1.20542e-08
1.19915e-08
1.19015e-08
1.17851e-08
1.1643e-08
1.14761e-08
1.12855e-08
1.10726e-08
1.08386e-08
1.05852e-08
1.03139e-08
1.00264e-08
9.72451e-09
9.40998e-09
9.08466e-09
8.7504e-09
8.40904e-09
8.06238e-09
7.71222e-09
7.36029e-09
7.00824e-09
6.65767e-09
6.31007e-09
5.96686e-09
5.62932e-09
5.29865e-09
4.97592e-09
4.66209e-09
4.35799e-09
4.06435e-09
3.78177e-09
3.51074e-09
3.25163e-09
3.0047e-09
2.77014e-09
2.54801e-09
2.33829e-09
2.14089e-09
1.95565e-09
1.78232e-09
1.62061e-09
1.47018e-09
1.33065e-09
1.20158e-09
1.08253e-09
9.73037e-10
8.72602e-10
7.80732e-10
6.96926e-10
6.20683e-10
5.51509e-10
4.88915e-10
4.32428e-10
3.81586e-10
3.35947e-10
2.95085e-10
2.58596e-10
2.26098e-10
1.97228e-10
1.71649e-10
1.49043e-10
1.29116e-10
1.11596e-10
9.6231e-11
8.27905e-11
7.10632e-11
6.08566e-11
5.19959e-11
4.43231e-11
3.76954e-11
3.1985e-11
2.70771e-11
2.28696e-11
1.92713e-11
1.62018e-11
1.35899e-11
1.13727e-11
9.4954e-12
7.9097e-12
6.57364e-12
5.45067e-12
4.50913e-12
3.72163e-12
3.0646e-12
2.51774e-12
2.06371e-12
1.68766e-12
1.37695e-12
1.12086e-12
9.10293e-13
7.37582e-13
5.96264e-13
4.80911e-13
3.86981e-13
3.10679e-13
2.48848e-13
1.98863e-13
1.58552e-13
1.26121e-13
1.00093e-13
7.92533e-14
6.26079e-14
4.93445e-14
3.88014e-14
3.04407e-14
2.38264e-14
1.86064e-14
1.44965e-14
1.12684e-14
8.73899e-15
6.76173e-15
5.21978e-15
4.02017e-15
3.08912e-15
2.36823e-15
1.81139e-15
1.38228e-15
1.0524e-15
7.99393e-16
6.05814e-16
4.58054e-16
3.45535e-16
2.60055e-16
1.95271e-16
1.46287e-16
1.09339e-16
8.15342e-17
6.06601e-17
4.50261e-17
3.33445e-17
2.46366e-17
1.81608e-17
1.33564e-17
9.8003e-18
7.17444e-18
5.24003e-18
3.81837e-18
2.776e-18
2.01354e-18
1.45713e-18
1.05204e-18
7.57818e-19
5.44622e-19
3.90502e-19
2.79351e-19
1.99376e-19
1.41969e-19
1.00859e-19
7.14873e-20
5.05525e-20
3.5666e-20
2.51051e-20
1.76307e-20
1.2353e-20
8.63523e-21
6.02244e-21
4.19053e-21
2.90913e-21
2.0149e-21
1.39233e-21
9.59902e-22
6.60252e-22
4.53096e-22
3.10218e-22
2.11906e-22
1.44416e-22
9.81936e-23
6.66116e-23
4.5083e-23
3.04421e-23
2.05084e-23
1.37844e-23
9.24355e-24
6.18426e-24
4.12794e-24
2.74901e-24
1.82649e-24
1.21074e-24
8.00725e-25
5.28331e-25
3.47785e-25
2.28388e-25
1.49599e-25
9.77066e-26
6.35701e-26
4.11066e-26
2.6263e-26
1.63257e-26
9.45044e-27
4.33795e-27
0
0
5.06671e-11
1.02247e-10
1.54758e-10
2.08367e-10
2.63428e-10
3.20499e-10
3.80323e-10
4.43787e-10
5.11875e-10
5.85612e-10
6.66024e-10
7.5411e-10
8.50823e-10
9.57067e-10
1.0737e-09
1.20155e-09
1.3414e-09
1.49401e-09
1.66012e-09
1.84044e-09
2.03564e-09
2.24635e-09
2.47317e-09
2.71661e-09
2.97715e-09
3.25517e-09
3.55096e-09
3.8647e-09
4.19648e-09
4.54625e-09
4.91384e-09
5.29892e-09
5.70103e-09
6.11952e-09
6.55362e-09
7.00234e-09
7.46457e-09
7.93899e-09
8.42413e-09
8.91833e-09
9.41978e-09
9.92653e-09
1.04365e-08
1.09473e-08
1.14567e-08
1.19623e-08
1.24614e-08
1.29514e-08
1.34297e-08
1.38936e-08
1.43405e-08
1.47676e-08
1.51725e-08
1.55525e-08
1.59054e-08
1.62289e-08
1.65208e-08
1.67792e-08
1.70025e-08
1.7189e-08
1.73376e-08
1.74473e-08
1.75172e-08
1.75469e-08
1.75361e-08
1.74851e-08
1.7394e-08
1.72636e-08
1.70948e-08
1.68886e-08
1.66464e-08
1.637e-08
1.60611e-08
1.57218e-08
1.53542e-08
1.49607e-08
1.45437e-08
1.41058e-08
1.36495e-08
1.31777e-08
1.26928e-08
1.21976e-08
1.16948e-08
1.11869e-08
1.06764e-08
1.01657e-08
9.65722e-09
9.15302e-09
8.65517e-09
8.16556e-09
7.68591e-09
7.21778e-09
6.76256e-09
6.32146e-09
5.89552e-09
5.48563e-09
5.09248e-09
4.71663e-09
4.35846e-09
4.01821e-09
3.696e-09
3.3918e-09
3.10547e-09
2.83676e-09
2.58534e-09
2.35077e-09
2.13257e-09
1.93017e-09
1.74295e-09
1.57027e-09
1.41144e-09
1.26576e-09
1.13249e-09
1.01093e-09
9.00335e-10
7.99994e-10
7.09199e-10
6.27261e-10
5.53512e-10
4.8731e-10
4.28038e-10
3.75109e-10
3.27968e-10
2.86091e-10
2.48987e-10
2.16196e-10
1.87291e-10
1.61877e-10
1.39589e-10
1.20093e-10
1.03082e-10
8.82766e-11
7.54236e-11
6.42937e-11
5.46799e-11
4.63965e-11
3.92774e-11
3.3174e-11
2.79545e-11
2.3502e-11
1.97131e-11
1.6497e-11
1.37738e-11
1.14736e-11
9.53558e-12
7.90663e-12
6.54086e-12
5.39854e-12
4.44545e-12
3.6522e-12
2.99359e-12
2.44809e-12
1.99739e-12
1.6259e-12
1.32046e-12
1.06993e-12
8.64935e-13
6.97606e-13
5.61352e-13
4.5067e-13
3.60978e-13
2.8847e-13
2.29996e-13
1.82952e-13
1.45195e-13
1.14965e-13
9.08193e-14
7.15795e-14
5.62856e-14
4.41575e-14
3.45628e-14
2.69906e-14
2.10288e-14
1.63461e-14
1.26769e-14
9.80866e-15
7.57189e-15
5.83173e-15
4.48114e-15
3.4354e-15
2.62763e-15
2.00517e-15
1.52663e-15
1.15962e-15
8.78811e-16
6.64467e-16
5.01244e-16
3.77245e-16
2.83266e-16
2.12209e-16
1.58611e-16
1.18277e-16
8.79959e-17
6.53167e-17
4.83708e-17
3.57389e-17
2.63449e-17
1.93754e-17
1.42168e-17
1.04076e-17
7.60146e-18
5.53913e-18
4.02702e-18
2.92095e-18
2.11379e-18
1.52615e-18
1.09934e-18
7.90062e-19
5.66487e-19
4.05244e-19
2.89228e-19
2.0595e-19
1.46312e-19
1.03704e-19
7.33351e-20
5.17396e-20
3.64194e-20
2.55764e-20
1.79202e-20
1.2527e-20
8.73665e-21
6.07913e-21
4.22022e-21
2.92299e-21
2.01983e-21
1.39252e-21
9.57822e-22
6.57303e-22
4.50032e-22
3.0741e-22
2.09503e-22
1.42449e-22
9.66335e-23
6.54021e-23
4.41624e-23
2.97516e-23
1.99971e-23
1.34097e-23
8.97157e-24
5.98846e-24
3.98803e-24
2.64971e-24
1.75645e-24
1.16163e-24
7.6646e-25
5.04539e-25
3.31327e-25
2.17028e-25
1.41746e-25
9.22231e-26
5.96346e-26
3.81005e-26
2.36842e-26
1.37101e-26
6.29321e-27
0
0
7.02966e-11
1.4186e-10
2.14716e-10
2.89095e-10
3.65489e-10
4.44672e-10
5.27674e-10
6.15728e-10
7.10196e-10
8.12502e-10
9.24071e-10
1.04629e-09
1.18047e-09
1.32788e-09
1.4897e-09
1.66708e-09
1.86111e-09
2.07285e-09
2.30332e-09
2.5535e-09
2.82432e-09
3.11667e-09
3.43136e-09
3.76912e-09
4.13061e-09
4.51633e-09
4.92671e-09
5.36201e-09
5.82233e-09
6.30762e-09
6.81761e-09
7.35189e-09
7.90977e-09
8.4904e-09
9.09267e-09
9.71525e-09
1.03566e-08
1.10148e-08
1.16879e-08
1.23735e-08
1.30693e-08
1.37723e-08
1.44798e-08
1.51886e-08
1.58954e-08
1.65968e-08
1.72892e-08
1.79691e-08
1.86327e-08
1.92763e-08
1.98963e-08
2.04889e-08
2.10506e-08
2.15779e-08
2.20676e-08
2.25163e-08
2.29213e-08
2.32799e-08
2.35896e-08
2.38485e-08
2.40546e-08
2.42067e-08
2.43037e-08
2.43449e-08
2.433e-08
2.42592e-08
2.41329e-08
2.3952e-08
2.37177e-08
2.34316e-08
2.30957e-08
2.27122e-08
2.22836e-08
2.18128e-08
2.13028e-08
2.07568e-08
2.01783e-08
1.95707e-08
1.89377e-08
1.8283e-08
1.76103e-08
1.69233e-08
1.62257e-08
1.5521e-08
1.48127e-08
1.41042e-08
1.33987e-08
1.26992e-08
1.20084e-08
1.13292e-08
1.06637e-08
1.00142e-08
9.38259e-09
8.7706e-09
8.17965e-09
7.61095e-09
7.06549e-09
6.54402e-09
6.04709e-09
5.57502e-09
5.12797e-09
4.70591e-09
4.30865e-09
3.93584e-09
3.587e-09
3.26156e-09
2.95882e-09
2.678e-09
2.41825e-09
2.17867e-09
1.9583e-09
1.75617e-09
1.57128e-09
1.40261e-09
1.24917e-09
1.10995e-09
9.8398e-10
8.70296e-10
7.67974e-10
6.76121e-10
5.93884e-10
5.20448e-10
4.55043e-10
3.96941e-10
3.4546e-10
2.99964e-10
2.5986e-10
2.24599e-10
1.93676e-10
1.66625e-10
1.43023e-10
1.22481e-10
1.04648e-10
8.92057e-11
7.58669e-11
6.43741e-11
5.44964e-11
4.60282e-11
3.87863e-11
3.26086e-11
2.73516e-11
2.28894e-11
1.9111e-11
1.59195e-11
1.32305e-11
1.09704e-11
9.07539e-12
7.49044e-12
6.16805e-12
5.06742e-12
4.1536e-12
3.39673e-12
2.77138e-12
2.25595e-12
1.83215e-12
1.48454e-12
1.20011e-12
9.67936e-13
7.78883e-13
6.25311e-13
5.00863e-13
4.00257e-13
3.19123e-13
2.5385e-13
2.01462e-13
1.59517e-13
1.26014e-13
9.93186e-14
7.8098e-14
6.12699e-14
4.79571e-14
3.74505e-14
2.91783e-14
2.26809e-14
1.75897e-14
1.361e-14
1.05064e-14
8.09181e-15
6.21781e-15
4.7668e-15
3.64599e-15
2.78228e-15
2.11829e-15
1.60904e-15
1.21941e-15
9.21991e-16
6.9551e-16
5.23453e-16
3.93052e-16
2.94456e-16
2.20085e-16
1.64118e-16
1.22101e-16
9.06323e-17
6.71187e-17
4.95909e-17
3.65559e-17
2.68851e-17
1.97271e-17
1.44415e-17
1.05478e-17
7.6861e-18
5.58791e-18
4.05313e-18
2.93311e-18
2.1177e-18
1.52545e-18
1.0963e-18
7.86068e-19
5.62325e-19
4.0134e-19
2.85782e-19
2.03027e-19
1.43904e-19
1.01762e-19
7.17958e-20
5.0537e-20
3.54909e-20
2.48669e-20
1.7383e-20
1.21234e-20
8.43572e-21
5.85621e-21
4.0561e-21
2.80284e-21
1.93235e-21
1.32914e-21
9.12118e-22
6.24496e-22
4.26585e-22
2.90723e-22
1.97674e-22
1.34097e-22
9.07575e-23
6.12836e-23
4.12861e-23
2.77498e-23
1.86086e-23
1.24498e-23
8.31019e-24
5.53421e-24
3.67702e-24
2.43744e-24
1.612e-24
1.06363e-24
7.00158e-25
4.5979e-25
3.01175e-25
1.96704e-25
1.27981e-25
8.27568e-26
5.28734e-26
3.28674e-26
1.9026e-26
8.73334e-27
0
0
9.52938e-11
1.92305e-10
2.91069e-10
3.91898e-10
4.95461e-10
6.02803e-10
7.15324e-10
8.34693e-10
9.62757e-10
1.10145e-09
1.25269e-09
1.41837e-09
1.60027e-09
1.8001e-09
2.01947e-09
2.25993e-09
2.52296e-09
2.81e-09
3.12242e-09
3.46156e-09
3.82869e-09
4.225e-09
4.65159e-09
5.10947e-09
5.5995e-09
6.12239e-09
6.6787e-09
7.26879e-09
7.8928e-09
8.55065e-09
9.242e-09
9.96626e-09
1.07225e-08
1.15096e-08
1.23261e-08
1.317e-08
1.40394e-08
1.49316e-08
1.58441e-08
1.67736e-08
1.77167e-08
1.86698e-08
1.96288e-08
2.05896e-08
2.15477e-08
2.24985e-08
2.34372e-08
2.43588e-08
2.52584e-08
2.61309e-08
2.69714e-08
2.77747e-08
2.85362e-08
2.9251e-08
2.99147e-08
3.0523e-08
3.1072e-08
3.15581e-08
3.1978e-08
3.23289e-08
3.26084e-08
3.28145e-08
3.2946e-08
3.30019e-08
3.29817e-08
3.28857e-08
3.27144e-08
3.24692e-08
3.21516e-08
3.17638e-08
3.13084e-08
3.07886e-08
3.02076e-08
2.95694e-08
2.88781e-08
2.81379e-08
2.73537e-08
2.653e-08
2.5672e-08
2.47845e-08
2.38726e-08
2.29413e-08
2.19956e-08
2.10403e-08
2.00802e-08
1.91198e-08
1.81634e-08
1.72151e-08
1.62787e-08
1.53579e-08
1.44558e-08
1.35753e-08
1.27191e-08
1.18895e-08
1.10884e-08
1.03175e-08
9.57807e-09
8.87117e-09
8.19752e-09
7.55759e-09
6.95157e-09
6.37942e-09
5.84088e-09
5.3355e-09
4.86262e-09
4.42145e-09
4.01105e-09
3.63036e-09
3.27824e-09
2.95346e-09
2.65473e-09
2.38072e-09
2.13007e-09
1.90143e-09
1.69342e-09
1.50469e-09
1.33392e-09
1.17981e-09
1.0411e-09
9.16578e-10
8.05095e-10
7.05543e-10
6.16877e-10
5.38112e-10
4.68323e-10
4.06646e-10
3.52279e-10
3.04478e-10
2.62557e-10
2.25887e-10
1.9389e-10
1.66043e-10
1.41868e-10
1.20933e-10
1.0285e-10
8.72699e-11
7.38792e-11
6.23992e-11
5.25816e-11
4.42067e-11
3.708e-11
3.10307e-11
2.59084e-11
2.15819e-11
1.79364e-11
1.48724e-11
1.23034e-11
1.01547e-11
8.362e-12
6.86989e-12
5.63103e-12
4.60495e-12
3.75717e-12
3.0584e-12
2.48386e-12
2.0126e-12
1.627e-12
1.31225e-12
1.05595e-12
8.47748e-13
6.79031e-13
5.4264e-13
4.32645e-13
3.44152e-13
2.73128e-13
2.16263e-13
1.70842e-13
1.3465e-13
1.05881e-13
8.30665e-14
6.50179e-14
5.07736e-14
3.95586e-14
3.07498e-14
2.38475e-14
1.84519e-14
1.42442e-14
1.09706e-14
8.42993e-15
6.46271e-15
4.94315e-15
3.77217e-15
2.87194e-15
2.18152e-15
1.65326e-15
1.25003e-15
9.4297e-16
7.09698e-16
5.32901e-16
3.99226e-16
2.98393e-16
2.22513e-16
1.65547e-16
1.22881e-16
9.1001e-17
6.72365e-17
4.95636e-17
3.64517e-17
2.67467e-17
1.95804e-17
1.43011e-17
1.04212e-17
7.57636e-18
5.49544e-18
3.97688e-18
2.87131e-18
2.06831e-18
1.48644e-18
1.06581e-18
7.62441e-19
5.44167e-19
3.87485e-19
2.75281e-19
1.95117e-19
1.37978e-19
9.73475e-20
6.8523e-20
4.81222e-20
3.37172e-20
2.35698e-20
1.64383e-20
1.14381e-20
7.94056e-21
5.49977e-21
3.80045e-21
2.62013e-21
1.80222e-21
1.23678e-21
8.46782e-22
5.78427e-22
3.94206e-22
2.68037e-22
1.81829e-22
1.23064e-22
8.30985e-23
5.59827e-23
3.7628e-23
2.52328e-23
1.68818e-23
1.12685e-23
7.50434e-24
4.98603e-24
3.30517e-24
2.18588e-24
1.44229e-24
9.49423e-25
6.23483e-25
4.08399e-25
2.66736e-25
1.73545e-25
1.12221e-25
7.16983e-26
4.45695e-26
2.58e-26
1.18428e-26
0
0
1.27507e-10
2.57311e-10
3.89463e-10
5.24379e-10
6.62952e-10
8.06586e-10
9.57148e-10
1.11687e-09
1.28823e-09
1.47381e-09
1.67619e-09
1.89788e-09
2.14127e-09
2.40865e-09
2.70219e-09
3.02393e-09
3.37588e-09
3.75995e-09
4.17799e-09
4.63178e-09
5.12301e-09
5.65329e-09
6.2241e-09
6.83676e-09
7.49243e-09
8.19209e-09
8.93645e-09
9.72601e-09
1.0561e-08
1.14412e-08
1.23662e-08
1.33353e-08
1.43472e-08
1.54004e-08
1.64928e-08
1.76221e-08
1.87853e-08
1.99792e-08
2.12e-08
2.24437e-08
2.37056e-08
2.49809e-08
2.62641e-08
2.75497e-08
2.88317e-08
3.01039e-08
3.13599e-08
3.2593e-08
3.37967e-08
3.49642e-08
3.60887e-08
3.71636e-08
3.81824e-08
3.91389e-08
4.00269e-08
4.08409e-08
4.15755e-08
4.22259e-08
4.27877e-08
4.32572e-08
4.36311e-08
4.3907e-08
4.40829e-08
4.41577e-08
4.41307e-08
4.40022e-08
4.37731e-08
4.3445e-08
4.302e-08
4.25011e-08
4.18918e-08
4.11963e-08
4.04189e-08
3.9565e-08
3.864e-08
3.76497e-08
3.66003e-08
3.54983e-08
3.43502e-08
3.31627e-08
3.19425e-08
3.06964e-08
2.9431e-08
2.81529e-08
2.68682e-08
2.55831e-08
2.43034e-08
2.30346e-08
2.17817e-08
2.05496e-08
1.93425e-08
1.81645e-08
1.70189e-08
1.59088e-08
1.48369e-08
1.38054e-08
1.2816e-08
1.18701e-08
1.09688e-08
1.01125e-08
9.30163e-09
8.53607e-09
7.81548e-09
7.13925e-09
6.50651e-09
5.9162e-09
5.36707e-09
4.85769e-09
4.38653e-09
3.95195e-09
3.55223e-09
3.18559e-09
2.85021e-09
2.54427e-09
2.26594e-09
2.01341e-09
1.7849e-09
1.57869e-09
1.39308e-09
1.22647e-09
1.07729e-09
9.44084e-10
8.25442e-10
7.20048e-10
6.26664e-10
5.44135e-10
4.71387e-10
4.07425e-10
3.51331e-10
3.02262e-10
2.59448e-10
2.22185e-10
1.89836e-10
1.61823e-10
1.37627e-10
1.16778e-10
9.886e-11
8.34983e-11
7.03613e-11
5.91546e-11
4.96183e-11
4.15235e-11
3.46692e-11
2.88797e-11
2.40016e-11
1.99016e-11
1.64639e-11
1.35886e-11
1.11897e-11
9.19304e-12
7.53526e-12
6.16221e-12
5.02774e-12
4.09268e-12
3.32385e-12
2.69323e-12
2.17723e-12
1.75603e-12
1.41306e-12
1.13445e-12
9.08678e-13
7.2616e-13
5.78967e-13
4.60546e-13
3.65503e-13
2.89406e-13
2.28624e-13
1.80192e-13
1.41692e-13
1.11162e-13
8.70089e-14
6.79469e-14
5.29388e-14
4.11507e-14
3.19138e-14
2.46932e-14
1.90623e-14
1.46815e-14
1.12814e-14
8.64881e-15
6.61525e-15
5.04818e-15
3.84345e-15
2.91948e-15
2.21253e-15
1.6729e-15
1.26197e-15
9.49783e-16
7.1318e-16
5.34284e-16
3.9934e-16
2.97791e-16
2.21554e-16
1.64454e-16
1.21789e-16
8.99844e-17
6.63324e-17
4.87845e-17
3.57962e-17
2.62053e-17
1.91398e-17
1.39472e-17
1.01399e-17
7.35487e-18
5.32251e-18
3.84287e-18
2.76816e-18
1.98942e-18
1.42645e-18
1.02044e-18
7.28308e-19
5.18609e-19
3.68436e-19
2.61146e-19
1.84672e-19
1.30291e-19
9.17125e-20
6.44078e-20
4.5128e-20
3.15465e-20
2.20016e-20
1.53093e-20
1.0628e-20
7.36118e-21
5.08674e-21
3.50695e-21
2.41222e-21
1.65539e-21
1.1334e-21
7.74215e-22
5.2764e-22
3.58766e-22
2.43378e-22
1.64721e-22
1.11228e-22
7.49336e-23
5.03658e-23
3.37748e-23
2.25967e-23
1.50833e-23
1.00449e-23
6.67402e-24
4.42413e-24
2.92593e-24
1.93059e-24
1.27087e-24
8.34577e-25
5.46674e-25
3.57048e-25
2.32306e-25
1.50218e-25
9.59752e-26
5.96608e-26
3.45361e-26
1.58528e-26
0
0
1.69272e-10
3.41595e-10
5.17036e-10
6.96148e-10
8.80117e-10
1.07081e-09
1.27069e-09
1.48275e-09
1.71025e-09
1.95662e-09
2.2253e-09
2.51961e-09
2.84274e-09
3.19771e-09
3.5874e-09
4.01454e-09
4.48178e-09
4.99166e-09
5.54664e-09
6.14907e-09
6.80122e-09
7.5052e-09
8.26298e-09
9.07632e-09
9.94677e-09
1.08756e-08
1.18638e-08
1.2912e-08
1.40204e-08
1.5189e-08
1.6417e-08
1.77036e-08
1.90469e-08
2.04451e-08
2.18953e-08
2.33944e-08
2.49386e-08
2.65236e-08
2.81444e-08
2.97954e-08
3.14707e-08
3.31636e-08
3.48672e-08
3.65739e-08
3.82758e-08
3.99647e-08
4.1632e-08
4.32691e-08
4.4867e-08
4.64168e-08
4.79097e-08
4.93367e-08
5.06892e-08
5.19589e-08
5.31379e-08
5.42184e-08
5.51937e-08
5.60571e-08
5.68029e-08
5.74262e-08
5.79226e-08
5.82889e-08
5.85224e-08
5.86216e-08
5.85859e-08
5.84153e-08
5.81112e-08
5.76755e-08
5.71114e-08
5.64226e-08
5.56137e-08
5.46903e-08
5.36584e-08
5.25248e-08
5.12968e-08
4.99821e-08
4.8589e-08
4.7126e-08
4.56019e-08
4.40254e-08
4.24057e-08
4.07514e-08
3.90716e-08
3.73747e-08
3.56693e-08
3.39633e-08
3.22644e-08
3.058e-08
2.89167e-08
2.7281e-08
2.56786e-08
2.41146e-08
2.25938e-08
2.11201e-08
1.96971e-08
1.83277e-08
1.70143e-08
1.57586e-08
1.45619e-08
1.34252e-08
1.23487e-08
1.13324e-08
1.03757e-08
9.47799e-09
8.63799e-09
7.85431e-09
7.12529e-09
6.44905e-09
5.82355e-09
5.24661e-09
4.71595e-09
4.2292e-09
3.78395e-09
3.37779e-09
3.00828e-09
2.67302e-09
2.36966e-09
2.09589e-09
1.84948e-09
1.62828e-09
1.43024e-09
1.25339e-09
1.09588e-09
9.55957e-10
8.31979e-10
7.22413e-10
6.25832e-10
5.40914e-10
4.66442e-10
4.01297e-10
3.44455e-10
2.94984e-10
2.52036e-10
2.14846e-10
1.82721e-10
1.55042e-10
1.31253e-10
1.10858e-10
9.34165e-11
7.85379e-11
6.5877e-11
5.51298e-11
4.60297e-11
3.83432e-11
3.18667e-11
2.64232e-11
2.1859e-11
1.80416e-11
1.48566e-11
1.22056e-11
1.00046e-11
8.18163e-12
6.6754e-12
5.43392e-12
4.41315e-12
3.57587e-12
2.89077e-12
2.33154e-12
1.87617e-12
1.50626e-12
1.20649e-12
9.64157e-13
7.68724e-13
6.11492e-13
4.853e-13
3.84262e-13
3.03559e-13
2.39253e-13
1.88135e-13
1.47598e-13
1.15529e-13
9.0219e-14
7.02917e-14
5.46397e-14
4.23751e-14
3.27877e-14
2.5311e-14
1.94943e-14
1.49797e-14
1.14841e-14
8.7839e-15
6.70312e-15
5.10346e-15
3.8766e-15
2.93789e-15
2.22135e-15
1.6757e-15
1.26118e-15
9.47005e-16
7.09458e-16
5.30273e-16
3.9543e-16
2.94197e-16
2.18376e-16
1.61722e-16
1.1949e-16
8.80828e-17
6.47812e-17
4.75341e-17
3.47984e-17
2.54162e-17
1.85208e-17
1.3465e-17
9.7668e-18
7.06798e-18
5.10312e-18
3.67599e-18
2.64186e-18
1.89428e-18
1.35511e-18
9.67174e-19
6.88702e-19
4.89278e-19
3.46799e-19
2.45243e-19
1.73027e-19
1.21795e-19
8.55344e-20
5.99309e-20
4.18946e-20
2.92188e-20
2.03313e-20
1.41144e-20
9.77599e-21
6.75546e-21
4.65743e-21
3.20358e-21
2.19848e-21
1.50524e-21
1.02822e-21
7.00753e-22
4.76475e-22
3.23231e-22
2.18767e-22
1.47724e-22
9.95208e-23
6.68922e-23
4.48573e-23
3.00116e-23
2.00328e-23
1.33411e-23
8.86416e-24
5.87598e-24
3.88613e-24
2.56417e-24
1.68794e-24
1.10848e-24
7.2609e-25
4.74232e-25
3.08551e-25
1.99522e-25
1.27476e-25
7.9243e-26
4.58719e-26
2.10563e-26
0
0
2.2356e-10
4.5115e-10
6.82861e-10
9.19422e-10
1.1624e-09
1.41426e-09
1.67826e-09
1.95834e-09
2.25882e-09
2.58422e-09
2.93908e-09
3.32779e-09
3.75456e-09
4.22339e-09
4.73807e-09
5.30221e-09
5.91931e-09
6.59273e-09
7.3257e-09
8.12136e-09
8.98267e-09
9.91244e-09
1.09133e-08
1.19875e-08
1.31371e-08
1.43638e-08
1.56689e-08
1.70533e-08
1.85172e-08
2.00606e-08
2.16825e-08
2.33816e-08
2.51558e-08
2.70023e-08
2.89177e-08
3.08976e-08
3.2937e-08
3.50303e-08
3.71708e-08
3.93514e-08
4.15639e-08
4.37998e-08
4.60497e-08
4.83037e-08
5.05514e-08
5.2782e-08
5.4984e-08
5.71461e-08
5.92565e-08
6.13033e-08
6.32749e-08
6.51596e-08
6.69459e-08
6.86228e-08
7.01798e-08
7.1607e-08
7.28949e-08
7.40352e-08
7.50203e-08
7.58434e-08
7.64991e-08
7.69828e-08
7.72913e-08
7.74223e-08
7.73751e-08
7.71498e-08
7.67481e-08
7.61728e-08
7.54278e-08
7.45181e-08
7.34499e-08
7.22303e-08
7.08675e-08
6.93703e-08
6.77485e-08
6.60122e-08
6.41724e-08
6.22402e-08
6.02273e-08
5.81453e-08
5.6006e-08
5.38213e-08
5.16027e-08
4.93617e-08
4.71093e-08
4.48562e-08
4.26125e-08
4.03878e-08
3.81912e-08
3.60309e-08
3.39145e-08
3.1849e-08
2.98404e-08
2.78941e-08
2.60147e-08
2.42061e-08
2.24714e-08
2.0813e-08
1.92326e-08
1.77313e-08
1.63095e-08
1.49672e-08
1.37038e-08
1.25181e-08
1.14087e-08
1.03736e-08
9.41078e-09
8.51764e-09
7.69152e-09
6.92953e-09
6.22866e-09
5.58579e-09
4.99773e-09
4.46129e-09
3.97326e-09
3.53047e-09
3.1298e-09
2.76821e-09
2.44276e-09
2.15061e-09
1.88904e-09
1.65547e-09
1.44743e-09
1.26263e-09
1.09888e-09
9.54165e-10
8.26602e-10
7.14444e-10
6.16082e-10
5.30039e-10
4.54963e-10
3.89621e-10
3.32895e-10
2.83774e-10
2.41343e-10
2.04784e-10
1.73363e-10
1.46426e-10
1.23389e-10
1.03736e-10
8.70135e-11
7.28183e-11
6.07986e-11
5.0646e-11
4.20915e-11
3.49015e-11
2.88729e-11
2.38307e-11
1.96237e-11
1.61222e-11
1.3215e-11
1.0807e-11
8.81749e-12
7.17765e-12
5.82932e-12
4.72338e-12
3.81844e-12
3.07976e-12
2.47826e-12
1.98964e-12
1.59368e-12
1.27358e-12
1.01543e-12
8.07743e-13
6.41053e-13
5.0759e-13
4.00987e-13
3.16043e-13
2.48519e-13
1.94972e-13
1.5261e-13
1.19177e-13
9.28537e-14
7.2178e-14
5.59769e-14
4.33123e-14
3.34358e-14
2.5752e-14
1.97882e-14
1.51706e-14
1.16037e-14
8.85496e-15
6.74181e-15
5.12111e-15
3.88105e-15
2.9345e-15
2.21368e-15
1.66608e-15
1.25105e-15
9.37238e-16
7.00526e-16
5.22392e-16
3.88657e-16
2.88493e-16
2.13649e-16
1.57857e-16
1.16366e-16
8.55829e-17
6.27978e-17
4.59727e-17
3.35779e-17
2.44684e-17
1.77891e-17
1.29033e-17
9.33783e-18
6.742e-18
4.85656e-18
3.49033e-18
2.50266e-18
1.79034e-18
1.27781e-18
9.09905e-19
6.46431e-19
4.58191e-19
3.24017e-19
2.28606e-19
1.60918e-19
1.1301e-19
7.91826e-20
5.53527e-20
3.86052e-20
2.68627e-20
1.86488e-20
1.29167e-20
8.9258e-21
6.15377e-21
4.23284e-21
2.90483e-21
1.98887e-21
1.35859e-21
9.25913e-22
6.29576e-22
4.27093e-22
2.89065e-22
1.95193e-22
1.31501e-22
8.83882e-23
5.92727e-23
3.96564e-23
2.64708e-23
1.76287e-23
1.1713e-23
7.76449e-24
5.13515e-24
3.38832e-24
2.23048e-24
1.46477e-24
9.5948e-25
6.2667e-25
4.07734e-25
2.6366e-25
1.68455e-25
1.04717e-25
6.06184e-26
2.78253e-26
0
0
2.94152e-10
5.93609e-10
8.9849e-10
1.20976e-09
1.52947e-09
1.86087e-09
2.20826e-09
2.57679e-09
2.97217e-09
3.40034e-09
3.86727e-09
4.37874e-09
4.94029e-09
5.55717e-09
6.23438e-09
6.97668e-09
7.78865e-09
8.67472e-09
9.63916e-09
1.06861e-08
1.18194e-08
1.30427e-08
1.43596e-08
1.5773e-08
1.72856e-08
1.88997e-08
2.0617e-08
2.24385e-08
2.43647e-08
2.63953e-08
2.85294e-08
3.0765e-08
3.30994e-08
3.5529e-08
3.80492e-08
4.06542e-08
4.33377e-08
4.60919e-08
4.89083e-08
5.17774e-08
5.46886e-08
5.76304e-08
6.05907e-08
6.35565e-08
6.65139e-08
6.94487e-08
7.23461e-08
7.51909e-08
7.79676e-08
8.06607e-08
8.32548e-08
8.57346e-08
8.80849e-08
9.02913e-08
9.234e-08
9.42177e-08
9.59124e-08
9.74127e-08
9.87088e-08
9.97919e-08
1.00655e-07
1.01291e-07
1.01697e-07
1.01869e-07
1.01807e-07
1.01511e-07
1.00982e-07
1.00225e-07
9.92451e-08
9.80482e-08
9.66427e-08
9.50381e-08
9.3245e-08
9.12751e-08
8.91412e-08
8.68567e-08
8.4436e-08
8.18938e-08
7.92453e-08
7.65059e-08
7.36912e-08
7.08166e-08
6.78975e-08
6.49489e-08
6.19853e-08
5.90207e-08
5.60686e-08
5.31415e-08
5.02512e-08
4.74088e-08
4.46242e-08
4.19064e-08
3.92636e-08
3.67027e-08
3.42299e-08
3.18502e-08
2.95677e-08
2.73856e-08
2.53062e-08
2.33308e-08
2.146e-08
1.96939e-08
1.80315e-08
1.64714e-08
1.50116e-08
1.36497e-08
1.23828e-08
1.12076e-08
1.01206e-08
9.11801e-09
8.1958e-09
7.34991e-09
6.57614e-09
5.87029e-09
5.22813e-09
4.6455e-09
4.1183e-09
3.64252e-09
3.21429e-09
2.82987e-09
2.48569e-09
2.17834e-09
1.9046e-09
1.66143e-09
1.44597e-09
1.25555e-09
1.08769e-09
9.40112e-10
8.10683e-10
6.97463e-10
5.98674e-10
5.12694e-10
4.38051e-10
3.73414e-10
3.17581e-10
2.69474e-10
2.28128e-10
1.92681e-10
1.62367e-10
1.36507e-10
1.14502e-10
9.58226e-11
8.00059e-11
6.6646e-11
5.53893e-11
4.59278e-11
3.79948e-11
3.13597e-11
2.58236e-11
2.12159e-11
1.73902e-11
1.42215e-11
1.16034e-11
9.4455e-12
7.67118e-12
6.21581e-12
5.02496e-12
4.05289e-12
3.26134e-12
2.61834e-12
2.09727e-12
1.67603e-12
1.33631e-12
1.06299e-12
8.43631e-13