# vtk DataFile Version 3.0
2D field
ASCII
DATASET STRUCTURED_POINTS
DIMENSIONS 257 257 1
ORIGIN 0 0 0
SPACING 0.00390625 0.00390625 1
POINT_DATA 66049
SCALARS temperature double 1
LOOKUP_TABLE default
0
0
0
0
0
0
0
0
0
0
0
0
0
0
0
0
0
0
0
0
0
0
0
0
0
0
0
0
0
0
0
0
0
0
0
0
0
0
0
0
0
0
0
0
0
0
0
0
0
0
0
0
0
0
0
0
0
0
0
0
0
0
0
0
0
0
0
0
0
0
0
0
0
0
0
0
0
0
0
0
0
0
0
0
0
0
0
0
0
0
0
0
0
0
0
0
0
0
0
0
0
0
0
0
0
0
0
0
0
0
0
0
0
0
0
0
0
0
0
0
0
0
0
0
0
0
0
0
0
0
0
0
0
0
0
0
0
0
0
0
0
0
0
0
0
0
0
0
0
0
0
0
0
0
0
0
0
0
0
0
0
0
0
0
0
0
0
0
0
0
0
0
0
0
0
0
0
0
0
0
0
0
0
0
0
0
0
0
0
0
0
0
0
0
0
0
0
0
0
0
0
0
0
0
0
0
0
0
0
0
0
0
0
0
0
0
0
0
0
0
0
0
0
0
0
0
0
0
0
0
0
0
0
0
0
0
0
0
0
0
0
0
0
0
0
0
0
0
0
0
0
0
0
0
0
0
0
0
6.52908e-11
1.32333e-10
2.01652e-10
2.73798e-10
3.49353e-10
4.28936e-10
5.13198e-10
6.02826e-10
6.98542e-10
8.01098e-10
9.11272e-10
1.02986e-09
1.15768e-09
1.29555e-09
1.44428e-09
1.60468e-09
1.77754e-09
1.96361e-09
2.16362e-09
2.37824e-09
2.60812e-09
2.8538e-09
3.1158e-09
3.39453e-09
3.69033e-09
4.00345e-09
4.33403e-09
4.6821e-09
5.04759e-09
5.43029e-09
5.82987e-09
6.24585e-09
6.67762e-09
7.12443e-09
7.58537e-09
8.05937e-09
8.54524e-09
9.0416e-09
9.54696e-09
1.00597e-08
1.05779e-08
1.10998e-08
1.16232e-08
1.21461e-08
1.26662e-08
1.31812e-08
1.36887e-08
1.41862e-08
1.46714e-08
1.51416e-08
1.55945e-08
1.60277e-08
1.64387e-08
1.68253e-08
1.71853e-08
1.75166e-08
1.78172e-08
1.80854e-08
1.83196e-08
1.85184e-08
1.86804e-08
1.88048e-08
1.88908e-08
1.89378e-08
1.89456e-08
1.8914e-08
1.88434e-08
1.87341e-08
1.85867e-08
1.84024e-08
1.8182e-08
1.7927e-08
1.7639e-08
1.73196e-08
1.69707e-08
1.65943e-08
1.61927e-08
1.57679e-08
1.53225e-08
1.48588e-08
1.43793e-08
1.38863e-08
1.33825e-08
1.28701e-08
1.23518e-08
1.18297e-08
1.13062e-08
1.07834e-08
1.02635e-08
9.74837e-09
9.2399e-09
8.73979e-09
8.24961e-09
7.77076e-09
7.30453e-09
6.85203e-09
6.41423e-09
5.99194e-09
5.58585e-09
5.19648e-09
4.82422e-09
4.46934e-09
4.13198e-09
3.81215e-09
3.50979e-09
3.22471e-09
2.95663e-09
2.70522e-09
2.47005e-09
2.25065e-09
2.04648e-09
1.85697e-09
1.68151e-09
1.51948e-09
1.37021e-09
1.23304e-09
1.1073e-09
9.92315e-10
8.87428e-10
7.91982e-10
7.05334e-10
6.26863e-10
5.55966e-10
4.92064e-10
4.34603e-10
3.83056e-10
3.36922e-10
2.9573e-10
2.59035e-10
2.26422e-10
1.97504e-10
1.71923e-10
1.49344e-10
1.29461e-10
1.11992e-10
9.66797e-11
8.32876e-11
7.16016e-11
6.14275e-11
5.25897e-11
4.49299e-11
3.83062e-11
3.25911e-11
2.76712e-11
2.34451e-11
1.98233e-11
1.67262e-11
1.40836e-11
1.1834e-11
9.92299e-12
8.30334e-12
6.93362e-12
5.77784e-12
4.80471e-12
3.98719e-12
3.3019e-12
2.72871e-12
2.25034e-12
1.85198e-12
1.52098e-12
1.24654e-12
1.0195e-12
8.32075e-13
6.77698e-13
5.50817e-13
4.46761e-13
3.6161e-13
2.92081e-13
2.3543e-13
1.89373e-13
1.52009e-13
1.21764e-13
9.73344e-14
7.76443e-14
6.18087e-14
4.91005e-14
3.89242e-14
3.07928e-14
2.43095e-14
1.91514e-14
1.50564e-14
1.18124e-14
9.24803e-15
7.22535e-15
5.63333e-15
4.38296e-15
3.40303e-15
2.6367e-15
2.0387e-15
1.57304e-15
1.21123e-15
9.3069e-16
7.13644e-16
5.46078e-16
4.16988e-16
3.17752e-16
2.41629e-16
1.83361e-16
1.38854e-16
1.04932e-16
7.91323e-17
5.95517e-17
4.4723e-17
3.35169e-17
2.50664e-17
1.87075e-17
1.39327e-17
1.0355e-17
7.68003e-18
5.6842e-18
4.19828e-18
3.09435e-18
2.27595e-18
1.67052e-18
1.22359e-18
8.94367e-19
6.52365e-19
4.74855e-19
3.44926e-19
2.50027e-19
1.8086e-19
1.30555e-19
9.40459e-20
6.76054e-20
4.84973e-20
3.47175e-20
2.48013e-20
1.76805e-20
1.2578e-20
8.9294e-21
6.32598e-21
4.47227e-21
3.15517e-21
2.22132e-21
1.56062e-21
1.09414e-21
7.65505e-22
5.3446e-22
3.72372e-22
2.589e-22
1.79631e-22
1.24373e-22
8.59326e-23
5.92485e-23
4.07638e-23
2.79851e-23
1.91683e-23
1.3096e-23
8.91936e-24
6.04786e-24
4.07034e-24
2.69999e-24
1.73519e-24
1.03162e-24
4.81883e-25
0
0
1.34794e-10
2.73204e-10
4.16312e-10
5.65258e-10
7.21244e-10
8.85543e-10
1.0595e-09
1.24454e-09
1.44215e-09
1.65387e-09
1.88133e-09
2.12616e-09
2.39004e-09
2.67467e-09
2.98172e-09
3.31287e-09
3.66973e-09
4.05387e-09
4.46678e-09
4.90988e-09
5.38445e-09
5.89166e-09
6.43255e-09
7.00798e-09
7.61866e-09
8.26508e-09
8.94755e-09
9.66614e-09
1.04207e-08
1.12107e-08
1.20357e-08
1.28944e-08
1.37858e-08
1.47082e-08
1.56598e-08
1.66384e-08
1.76414e-08
1.86662e-08
1.97094e-08
2.07679e-08
2.18378e-08
2.29152e-08
2.39958e-08
2.50753e-08
2.61491e-08
2.72122e-08
2.82599e-08
2.92871e-08
3.02886e-08
3.12594e-08
3.21944e-08
3.30886e-08
3.39372e-08
3.47353e-08
3.54785e-08
3.61624e-08
3.6783e-08
3.73368e-08
3.78202e-08
3.82305e-08
3.85651e-08
3.88219e-08
3.89994e-08
3.90965e-08
3.91125e-08
3.90474e-08
3.89015e-08
3.86758e-08
3.83717e-08
3.7991e-08
3.75361e-08
3.70098e-08
3.64151e-08
3.57557e-08
3.50354e-08
3.42585e-08
3.34293e-08
3.25525e-08
3.1633e-08
3.06756e-08
2.96856e-08
2.8668e-08
2.76278e-08
2.65701e-08
2.54999e-08
2.44221e-08
2.33413e-08
2.22621e-08
2.11888e-08
2.01253e-08
1.90756e-08
1.80432e-08
1.70312e-08
1.60426e-08
1.50801e-08
1.4146e-08
1.32421e-08
1.23703e-08
1.1532e-08
1.07281e-08
9.9596e-09
9.22696e-09
8.53048e-09
7.87021e-09
7.24599e-09
6.65743e-09
6.104e-09
5.58496e-09
5.09945e-09
4.6465e-09
4.22499e-09
3.83375e-09
3.47152e-09
3.137e-09
2.82883e-09
2.54564e-09
2.28605e-09
2.04867e-09
1.83213e-09
1.63508e-09
1.45619e-09
1.29419e-09
1.14782e-09
1.01589e-09
8.97261e-10
7.9084e-10
6.95595e-10
6.10551e-10
5.34793e-10
4.67463e-10
4.07761e-10
3.54946e-10
3.08331e-10
2.67282e-10
2.31217e-10
1.99603e-10
1.71954e-10
1.47828e-10
1.26823e-10
1.08576e-10
9.27623e-11
7.9087e-11
6.72878e-11
5.71301e-11
4.84051e-11
4.09275e-11
3.45332e-11
2.90774e-11
2.44327e-11
2.04873e-11
1.71434e-11
1.43154e-11
1.19292e-11
9.92003e-12
8.23215e-12
6.81728e-12
5.63386e-12
4.6462e-12
3.82373e-12
3.14032e-12
2.5737e-12
2.10493e-12
1.71797e-12
1.39924e-12
1.13727e-12
9.22426e-13
7.46617e-13
6.0306e-13
4.86094e-13
3.91001e-13
3.13856e-13
2.51409e-13
2.00969e-13
1.60315e-13
1.27619e-13
1.0138e-13
8.03686e-14
6.35795e-14
5.01932e-14
3.9543e-14
3.10878e-14
2.43898e-14
1.90951e-14
1.49188e-14
1.16316e-14
9.04989e-15
7.02657e-15
5.44427e-15
4.20952e-15
3.24804e-15
2.50096e-15
1.92171e-15
1.47355e-15
1.12756e-15
8.61012e-16
6.56108e-16
4.98928e-16
3.78613e-16
2.86715e-16
2.16671e-16
1.63398e-16
1.22967e-16
9.23478e-17
6.92087e-17
5.17595e-17
3.86292e-17
2.87698e-17
2.13822e-17
1.58586e-17
1.17375e-17
8.66917e-18
6.38964e-18
4.69971e-18
3.44954e-18
2.52666e-18
1.84683e-18
1.34711e-18
9.80563e-19
7.12266e-19
5.16303e-19
3.73475e-19
2.69596e-19
1.94206e-19
1.39606e-19
1.00148e-19
7.16926e-20
5.12156e-20
3.65111e-20
2.59742e-20
1.84397e-20
1.30635e-20
9.23554e-21
6.51566e-21
4.58722e-21
3.22281e-21
2.25951e-21
1.58085e-21
1.10372e-21
7.68992e-22
5.34662e-22
3.70963e-22
2.56847e-22
1.77463e-22
1.22357e-22
8.41838e-23
5.77939e-23
3.9586e-23
2.70456e-23
1.84202e-23
1.249e-23
8.40609e-24
5.57605e-24
3.58355e-24
2.13053e-24
9.95196e-25
0
0
2.12955e-10
4.31624e-10
6.57716e-10
8.93029e-10
1.13947e-09
1.39903e-09
1.67387e-09
1.9662e-09
2.27839e-09
2.61289e-09
2.97223e-09
3.35903e-09
3.77593e-09
4.22559e-09
4.71069e-09
5.23385e-09
5.79762e-09
6.4045e-09
7.05684e-09
7.75685e-09
8.50659e-09
9.3079e-09
1.01624e-08
1.10715e-08
1.20362e-08
1.30575e-08
1.41356e-08
1.52709e-08
1.64629e-08
1.77111e-08
1.90143e-08
2.0371e-08
2.17792e-08
2.32364e-08
2.47397e-08
2.62857e-08
2.78703e-08
2.94892e-08
3.11373e-08
3.28094e-08
3.44996e-08
3.62017e-08
3.79089e-08
3.96143e-08
4.13106e-08
4.29902e-08
4.46453e-08
4.6268e-08
4.78502e-08
4.93839e-08
5.0861e-08
5.22737e-08
5.36142e-08
5.48751e-08
5.60491e-08
5.71296e-08
5.81101e-08
5.89848e-08
5.97486e-08
6.03968e-08
6.09253e-08
6.13311e-08
6.16115e-08
6.17648e-08
6.17902e-08
6.16873e-08
6.14569e-08
6.11004e-08
6.062e-08
6.00186e-08
5.93e-08
5.84684e-08
5.7529e-08
5.64873e-08
5.53494e-08
5.4122e-08
5.2812e-08
5.14269e-08
4.99742e-08
4.84619e-08
4.68979e-08
4.52902e-08
4.36469e-08
4.1976e-08
4.02854e-08
3.85826e-08
3.68752e-08
3.51703e-08
3.34746e-08
3.17946e-08
3.01363e-08
2.85052e-08
2.69065e-08
2.53447e-08
2.38242e-08
2.23483e-08
2.09205e-08
1.95432e-08
1.82187e-08
1.69488e-08
1.57347e-08
1.45772e-08
1.34769e-08
1.24338e-08
1.14476e-08
1.05178e-08
9.64348e-09
8.82348e-09
8.05646e-09
7.34086e-09
6.67494e-09
6.05684e-09
5.48458e-09
4.95608e-09
4.46922e-09
4.02182e-09
3.6117e-09
3.23667e-09
2.89457e-09
2.58325e-09
2.30064e-09
2.04469e-09
1.81344e-09
1.60502e-09
1.4176e-09
1.24946e-09
1.09898e-09
9.64624e-10
8.44934e-10
7.38559e-10
6.44236e-10
5.60793e-10
4.87145e-10
4.22291e-10
3.65311e-10
3.15364e-10
2.7168e-10
2.33562e-10
2.00375e-10
1.71547e-10
1.46562e-10
1.24956e-10
1.06313e-10
9.02647e-11
7.64796e-11
6.46652e-11
5.45623e-11
4.59423e-11
3.86038e-11
3.23702e-11
2.70868e-11
2.26187e-11
1.88484e-11
1.56739e-11
1.30071e-11
1.07716e-11
8.90174e-12
7.34122e-12
6.0417e-12
4.96189e-12
4.0666e-12
3.32594e-12
2.71452e-12
2.2109e-12
1.79698e-12
1.45752e-12
1.17973e-12
9.52896e-13
7.68081e-13
6.17825e-13
4.9593e-13
3.97258e-13
3.17557e-13
2.53319e-13
2.01655e-13
1.60195e-13
1.26995e-13
1.00466e-13
7.93135e-14
6.24846e-14
4.91242e-14
3.85403e-14
3.01739e-14
2.35745e-14
1.83803e-14
1.43007e-14
1.11035e-14
8.60314e-15
6.65199e-15
5.13265e-15
3.95211e-15
3.03677e-15
2.32858e-15
1.78184e-15
1.36063e-15
1.03683e-15
7.88445e-16
5.98317e-16
4.53094e-16
3.42405e-16
2.58219e-16
1.94327e-16
1.45939e-16
1.09372e-16
8.17974e-17
6.10473e-17
4.54663e-17
3.37916e-17
2.50624e-17
1.85495e-17
1.37006e-17
1.00981e-17
7.4274e-18
5.45166e-18
3.99316e-18
2.91877e-18
2.12901e-18
1.54972e-18
1.1257e-18
8.15991e-19
5.90262e-19
4.26088e-19
3.06937e-19
2.20645e-19
1.58283e-19
1.1331e-19
8.09465e-20
5.77063e-20
4.10528e-20
2.91445e-20
2.06474e-20
1.45972e-20
1.02984e-20
7.2504e-21
5.09389e-21
3.57135e-21
2.49867e-21
1.74454e-21
1.21548e-21
8.45096e-22
5.86354e-22
4.05981e-22
2.80507e-22
1.93405e-22
1.33066e-22
9.13532e-23
6.25728e-23
4.27507e-23
2.91168e-23
1.97431e-23
1.32877e-23
8.8142e-24
5.66463e-24
3.36781e-24
1.57315e-24
0
0
3.04704e-10
6.17582e-10
9.41082e-10
1.27778e-09
1.63039e-09
2.00179e-09
2.39502e-09
2.81331e-09
3.26e-09
3.73861e-09
4.25277e-09
4.8062e-09
5.40271e-09
6.0461e-09
6.74018e-09
7.48871e-09
8.29537e-09
9.16369e-09
1.00971e-08
1.10986e-08
1.21713e-08
1.33179e-08
1.45405e-08
1.58412e-08
1.72215e-08
1.86827e-08
2.02253e-08
2.18496e-08
2.35551e-08
2.53409e-08
2.72055e-08
2.91466e-08
3.11614e-08
3.32464e-08
3.53973e-08
3.76092e-08
3.98764e-08
4.21926e-08
4.45507e-08
4.69431e-08
4.93614e-08
5.17966e-08
5.42392e-08
5.66793e-08
5.91062e-08
6.15093e-08
6.38773e-08
6.6199e-08
6.84627e-08
7.0657e-08
7.27705e-08
7.47917e-08
7.67096e-08
7.85136e-08
8.01934e-08
8.17392e-08
8.31421e-08
8.43937e-08
8.54864e-08
8.64138e-08
8.717e-08
8.77506e-08
8.81518e-08
8.83712e-08
8.84075e-08
8.82603e-08
8.79307e-08
8.74206e-08
8.67333e-08
8.58729e-08
8.48447e-08
8.3655e-08
8.2311e-08
8.08206e-08
7.91926e-08
7.74364e-08
7.55622e-08
7.35805e-08
7.15021e-08
6.93383e-08
6.71006e-08
6.48004e-08
6.24493e-08
6.00587e-08
5.76398e-08
5.52036e-08
5.27607e-08
5.03214e-08
4.78953e-08
4.54916e-08
4.31189e-08
4.07852e-08
3.84978e-08
3.62634e-08
3.40877e-08
3.19762e-08
2.99332e-08
2.79626e-08
2.60676e-08
2.42506e-08
2.25135e-08
2.08574e-08
1.92831e-08
1.77906e-08
1.63796e-08
1.50492e-08
1.37982e-08
1.2625e-08
1.15275e-08
1.05036e-08
9.55083e-09
8.66644e-09
7.84763e-09
7.09144e-09
6.39482e-09
5.75467e-09
5.16786e-09
4.63126e-09
4.14176e-09
3.69632e-09
3.29194e-09
2.92572e-09
2.59484e-09
2.29661e-09
2.02843e-09
1.78786e-09
1.57254e-09
1.38029e-09
1.20903e-09
1.05682e-09
9.21851e-10
8.02454e-10
6.97071e-10
6.04271e-10
5.22738e-10
4.51268e-10
3.88761e-10
3.34217e-10
2.86729e-10
2.45478e-10
2.09725e-10
1.78808e-10
1.52132e-10
1.29167e-10
1.09441e-10
9.25355e-11
7.80787e-11
6.57437e-11
5.52424e-11
4.63222e-11
3.87617e-11
3.23679e-11
2.69726e-11
2.243e-11
1.86137e-11
1.54146e-11
1.27389e-11
1.05057e-11
8.64607e-12
7.10082e-12
5.81963e-12
4.7597e-12
3.88473e-12
3.16402e-12
2.57166e-12
2.08587e-12
1.68832e-12
1.36371e-12
1.09922e-12
8.84191e-13
7.09747e-13
5.68535e-13
4.54473e-13
3.6254e-13
2.88603e-13
2.29267e-13
1.81753e-13
1.43786e-13
1.13513e-13
8.94284e-14
7.03072e-14
5.51597e-14
4.31857e-14
3.37407e-14
2.63066e-14
2.04679e-14
1.58919e-14
1.23134e-14
9.52081e-15
7.34627e-15
5.65661e-15
4.34652e-15
3.33291e-15
2.55036e-15
1.9475e-15
1.48404e-15
1.12853e-15
8.56399e-16
6.48537e-16
4.90106e-16
3.69607e-16
2.78155e-16
2.08896e-16
1.56555e-16
1.17085e-16
8.7384e-17
6.50815e-17
4.83704e-17
3.58754e-17
2.65527e-17
1.96118e-17
1.44551e-17
1.06322e-17
7.80398e-18
5.71619e-18
4.17823e-18
3.04771e-18
2.21845e-18
1.61147e-18
1.16812e-18
8.4499e-19
6.09971e-19
4.39402e-19
3.15871e-19
2.26596e-19
1.62215e-19
1.15884e-19
8.26135e-20
5.87724e-20
4.17245e-20
2.95599e-20
2.08983e-20
1.47439e-20
1.03803e-20
7.29289e-21
5.11311e-21
3.57738e-21
2.4977e-21
1.74024e-21
1.20996e-21
8.39516e-22
5.81271e-22
4.01623e-22
2.76915e-22
1.90524e-22
1.308e-22
8.95931e-23
6.12118e-23
4.16907e-23
2.82693e-23
1.90261e-23
1.26208e-23
8.11109e-24
4.82233e-24
2.25258e-24
0
0
4.15716e-10
8.42586e-10
1.28395e-09
1.74331e-09
2.22438e-09
2.7311e-09
3.2676e-09
3.83827e-09
4.4477e-09
5.10068e-09
5.80216e-09
6.55722e-09
7.37104e-09
8.24882e-09
9.19576e-09
1.0217e-08
1.13175e-08
1.25021e-08
1.37755e-08
1.5142e-08
1.66054e-08
1.81696e-08
1.98376e-08
2.16121e-08
2.34953e-08
2.54887e-08
2.75932e-08
2.98091e-08
3.21359e-08
3.45722e-08
3.7116e-08
3.97642e-08
4.25129e-08
4.53573e-08
4.82917e-08
5.13092e-08
5.44022e-08
5.75621e-08
6.07792e-08
6.40429e-08
6.73421e-08
7.06643e-08
7.39966e-08
7.73254e-08
8.06363e-08
8.39147e-08
8.71452e-08
9.03125e-08
9.34008e-08
9.63943e-08
9.92775e-08
1.02035e-07
1.04651e-07
1.07113e-07
1.09404e-07
1.11513e-07
1.13427e-07
1.15134e-07
1.16625e-07
1.1789e-07
1.18922e-07
1.19714e-07
1.20261e-07
1.20561e-07
1.2061e-07
1.2041e-07
1.1996e-07
1.19264e-07
1.18326e-07
1.17153e-07
1.1575e-07
1.14127e-07
1.12293e-07
1.1026e-07
1.08039e-07
1.05644e-07
1.03087e-07
1.00383e-07
9.75478e-08
9.4596e-08
9.15432e-08
8.84053e-08
8.51978e-08
8.19365e-08
7.86365e-08
7.5313e-08
7.19803e-08
6.86525e-08
6.53427e-08
6.20635e-08
5.88266e-08
5.56428e-08
5.25223e-08
4.94739e-08
4.65058e-08
4.3625e-08
4.08379e-08
3.81495e-08
3.55642e-08
3.30853e-08
3.07154e-08
2.84561e-08
2.63083e-08
2.42721e-08
2.23471e-08
2.05321e-08
1.88253e-08
1.72247e-08
1.57274e-08
1.43305e-08
1.30306e-08
1.1824e-08
1.07069e-08
9.67525e-09
8.72484e-09
7.85146e-09
7.05086e-09
6.31876e-09
5.65092e-09
5.04318e-09
4.49147e-09
3.99181e-09
3.54038e-09
3.13348e-09
2.7676e-09
2.43936e-09
2.14559e-09
1.88329e-09
1.64962e-09
1.44195e-09
1.2578e-09
1.0949e-09
9.51111e-10
8.24494e-10
7.1325e-10
6.15735e-10
5.30449e-10
4.56027e-10
3.91233e-10
3.34949e-10
2.86167e-10
2.43982e-10
2.07584e-10
1.76249e-10
1.49333e-10
1.26266e-10
1.0654e-10
8.97088e-11
7.538e-11
6.32083e-11
5.2892e-11
4.41676e-11
3.68056e-11
3.06071e-11
2.53997e-11
2.10344e-11
1.73832e-11
1.4336e-11
1.17984e-11
9.6898e-12
7.94152e-12
6.49516e-12
5.30119e-12
4.31771e-12
3.50939e-12
2.84647e-12
2.30398e-12
1.861e-12
1.50007e-12
1.20663e-12
9.68579e-13
7.75875e-13
6.20219e-13
4.94761e-13
3.93861e-13
3.12886e-13
2.48043e-13
1.9623e-13
1.54917e-13
1.22048e-13
9.59528e-14
7.52803e-14
5.89389e-14
4.60489e-14
3.59032e-14
2.79347e-14
2.16895e-14
1.68056e-14
1.29943e-14
1.00265e-14
7.72043e-15
5.9324e-15
4.54899e-15
3.48094e-15
2.65811e-15
2.02557e-15
1.54034e-15
1.16891e-15
8.85205e-16
6.68962e-16
5.04493e-16
3.79669e-16
2.85135e-16
2.13694e-16
1.59819e-16
1.19279e-16
8.88366e-17
6.60262e-17
4.89708e-17
3.62454e-17
2.6771e-17
1.9732e-17
1.45136e-17
1.0653e-17
7.8031e-18
5.7037e-18
4.16046e-18
3.02845e-18
2.19987e-18
1.59466e-18
1.15354e-18
8.3271e-19
5.9986e-19
4.31223e-19
3.09349e-19
2.21457e-19
1.58207e-19
1.12787e-19
8.02387e-20
5.69646e-20
4.03572e-20
2.8532e-20
2.01297e-20
1.41722e-20
9.95708e-21
6.98106e-21
4.88434e-21
3.41023e-21
2.37606e-21
1.65205e-21
1.14626e-21
7.93667e-22
5.48381e-22
3.78106e-22
2.60149e-22
1.78602e-22
1.22336e-22
8.35832e-23
5.69281e-23
3.86017e-23
2.59804e-23
1.7234e-23
1.1076e-23
6.58509e-24
3.076e-24
0
0
5.52721e-10
1.12027e-09
1.70709e-09
2.31784e-09
2.95746e-09
3.63117e-09
4.34448e-09
5.10322e-09
5.91349e-09
6.78166e-09
7.71432e-09
8.71821e-09
9.80022e-09
1.09673e-08
1.22262e-08
1.3584e-08
1.50472e-08
1.66222e-08
1.83151e-08
2.01318e-08
2.20775e-08
2.41571e-08
2.63747e-08
2.87339e-08
3.12376e-08
3.38878e-08
3.66857e-08
3.96318e-08
4.27252e-08
4.59643e-08
4.93461e-08
5.28668e-08
5.65212e-08
6.03028e-08
6.42039e-08
6.82156e-08
7.23277e-08
7.65287e-08
8.08056e-08
8.51447e-08
8.95308e-08
9.39475e-08
9.83777e-08
1.02803e-07
1.07205e-07
1.11563e-07
1.15858e-07
1.20069e-07
1.24175e-07
1.28155e-07
1.31988e-07
1.35654e-07
1.39132e-07
1.42404e-07
1.45451e-07
1.48254e-07
1.50799e-07
1.53069e-07
1.55051e-07
1.56733e-07
1.58104e-07
1.59157e-07
1.59885e-07
1.60283e-07
1.60349e-07
1.60082e-07
1.59484e-07
1.58559e-07
1.57313e-07
1.55752e-07
1.53888e-07
1.5173e-07
1.49293e-07
1.46589e-07
1.43637e-07
1.40452e-07
1.37053e-07
1.33459e-07
1.29689e-07
1.25765e-07
1.21706e-07
1.17535e-07
1.1327e-07
1.08935e-07
1.04548e-07
1.00129e-07
9.56984e-08
9.12741e-08
8.68738e-08
8.25142e-08
7.82108e-08
7.39782e-08
6.98294e-08
6.57767e-08
6.18306e-08
5.80007e-08
5.42953e-08
5.07211e-08
4.72839e-08
4.39883e-08
4.08375e-08
3.78337e-08
3.49781e-08
3.22711e-08
2.97117e-08
2.72986e-08
2.50295e-08
2.29014e-08
2.09107e-08
1.90535e-08
1.73252e-08
1.5721e-08
1.42358e-08
1.28641e-08
1.16005e-08
1.04393e-08
9.37485e-09
8.40147e-09
7.51354e-09
6.70551e-09
5.97196e-09
5.30762e-09
4.7074e-09
4.16639e-09
3.67991e-09
3.24349e-09
2.85289e-09
2.50413e-09
2.19344e-09
1.91731e-09
1.67246e-09
1.45586e-09
1.26468e-09
1.09632e-09
9.48406e-10
8.18744e-10
7.05342e-10
6.06386e-10
5.20231e-10
4.4539e-10
3.80525e-10
3.24432e-10
2.76033e-10
2.34367e-10
1.98577e-10
1.67904e-10
1.41673e-10
1.19293e-10
1.00239e-10
8.40539e-11
7.03357e-11
5.87343e-11
4.89446e-11
4.0702e-11
3.37772e-11
2.79723e-11
2.3117e-11
1.90647e-11
1.56902e-11
1.28861e-11
1.05612e-11
8.63779e-12
7.04999e-12
5.74211e-12
4.66715e-12
3.78555e-12
3.06411e-12
2.475e-12
1.995e-12
1.60476e-12
1.28817e-12
1.03188e-12
8.24874e-13
6.58022e-13
5.2383e-13
4.16138e-13
3.29899e-13
2.60989e-13
2.06043e-13
1.62328e-13
1.27621e-13
1.00127e-13
7.83924e-14
6.12483e-14
4.77542e-14
3.71556e-14
2.88493e-14
2.23533e-14
1.7284e-14
1.33365e-14
1.02692e-14
7.89097e-15
6.05088e-15
4.63023e-15
3.53577e-15
2.69439e-15
2.04896e-15
1.5549e-15
1.17752e-15
8.89875e-16
6.71099e-16
5.05056e-16
3.79305e-16
2.84272e-16
2.12606e-16
1.58676e-16
1.1818e-16
8.7836e-17
6.51474e-17
4.82188e-17
3.56149e-17
2.62508e-17
1.93086e-17
1.41727e-17
1.03812e-17
7.58827e-18
5.53517e-18
4.02917e-18
2.92681e-18
2.12163e-18
1.53475e-18
1.10791e-18
7.98113e-19
5.73746e-19
4.11595e-19
2.94656e-19
2.10502e-19
1.50069e-19
1.06763e-19
7.57962e-20
5.36992e-20
3.7965e-20
2.67851e-20
1.88581e-20
1.32494e-20
9.28945e-21
6.49948e-21
4.53797e-21
3.16183e-21
2.19842e-21
1.52537e-21
1.05617e-21
7.29763e-22
5.03173e-22
3.46203e-22
2.37683e-22
1.62807e-22
1.11235e-22
7.57624e-23
5.13733e-23
3.45765e-23
2.29365e-23
1.47409e-23
8.76411e-24
4.09387e-24
0
0
7.23846e-10
1.46711e-09
2.23561e-09
3.03546e-09
3.87311e-09
4.7554e-09
5.68956e-09
6.68321e-09
7.74434e-09
8.88129e-09
1.01027e-08
1.14174e-08
1.28343e-08
1.43627e-08
1.60114e-08
1.77895e-08
1.97056e-08
2.17682e-08
2.39852e-08
2.63643e-08
2.89123e-08
3.16355e-08
3.45395e-08
3.7629e-08
4.09076e-08
4.43782e-08
4.80422e-08
5.19001e-08
5.5951e-08
6.01926e-08
6.46212e-08
6.92317e-08
7.40171e-08
7.89691e-08
8.40777e-08
8.93311e-08
9.47159e-08
1.00217e-07
1.05818e-07
1.115e-07
1.17243e-07
1.23027e-07
1.28828e-07
1.34623e-07
1.40388e-07
1.46095e-07
1.51719e-07
1.57233e-07
1.62609e-07
1.67821e-07
1.7284e-07
1.77641e-07
1.82196e-07
1.8648e-07
1.9047e-07
1.94141e-07
1.97473e-07
2.00446e-07
2.03041e-07
2.05244e-07
2.0704e-07
2.08419e-07
2.09372e-07
2.09893e-07
2.09979e-07
2.0963e-07
2.08847e-07
2.07636e-07
2.06004e-07
2.03961e-07
2.01519e-07
1.98694e-07
1.95502e-07
1.91962e-07
1.88096e-07
1.83925e-07
1.79474e-07
1.74768e-07
1.69832e-07
1.64693e-07
1.59379e-07
1.53916e-07
1.48332e-07
1.42654e-07
1.36909e-07
1.31123e-07
1.25321e-07
1.19528e-07
1.13766e-07
1.08057e-07
1.02421e-07
9.68787e-08
9.14459e-08
8.61387e-08
8.09713e-08
7.5956e-08
7.11036e-08
6.64231e-08
6.1922e-08
5.76063e-08
5.34801e-08
4.95466e-08
4.58071e-08
4.2262e-08
3.89105e-08
3.57504e-08
3.27788e-08
2.99919e-08
2.7385e-08
2.49528e-08
2.26895e-08
2.05887e-08
1.86437e-08
1.68473e-08
1.51925e-08
1.36718e-08
1.22778e-08
1.1003e-08
9.84018e-09
8.78196e-09
7.82129e-09
6.95126e-09
6.16519e-09
5.45666e-09
4.81955e-09
4.24799e-09
3.73644e-09
3.27967e-09
2.87277e-09
2.51114e-09
2.19047e-09
1.90678e-09
1.65639e-09
1.4359e-09
1.24217e-09
1.07235e-09
9.23829e-10
7.94224e-10
6.81385e-10
5.83364e-10
4.98407e-10
4.24939e-10
3.61548e-10
3.06976e-10
2.60099e-10
2.19924e-10
1.85568e-10
1.56254e-10
1.31298e-10
1.10098e-10
9.21299e-11
7.6934e-11
6.41112e-11
5.33147e-11
4.42443e-11
3.66408e-11
3.0281e-11
2.49731e-11
2.05529e-11
1.68799e-11
1.38345e-11
1.1315e-11
9.23516e-12
7.52195e-12
6.11383e-12
4.959e-12
4.01394e-12
3.24224e-12
2.61347e-12
2.10226e-12
1.68753e-12
1.3518e-12
1.08062e-12
8.62044e-13
6.8625e-13
5.45171e-13
4.32195e-13
3.41919e-13
2.69938e-13
2.12667e-13
1.67199e-13
1.31179e-13
1.02705e-13
8.02445e-14
6.25656e-14
4.86802e-14
3.77978e-14
2.92871e-14
2.26455e-14
1.74737e-14
1.3455e-14
1.0339e-14
7.92814e-15
6.06679e-15
4.6328e-15
3.5304e-15
2.68473e-15
2.03739e-15
1.54292e-15
1.16602e-15
8.79364e-16
6.61798e-16
4.97026e-16
3.72501e-16
2.78595e-16
2.07928e-16
1.54864e-16
1.15102e-16
8.5371e-17
6.3188e-17
4.66717e-17
3.44008e-17
2.53035e-17
1.85732e-17
1.36047e-17
9.94456e-18
7.25401e-18
5.28039e-18
3.83575e-18
2.78054e-18
2.01142e-18
1.45202e-18
1.04601e-18
7.51964e-19
5.39451e-19
3.86191e-19
2.75897e-19
1.96692e-19
1.39934e-19
9.93463e-20
7.03844e-20
4.97618e-20
3.51084e-20
2.47184e-20
1.7367e-20
1.21765e-20
8.51952e-21
5.94844e-21
4.14462e-21
2.88178e-21
1.99954e-21
1.3845e-21
9.56639e-22
6.59612e-22
4.53843e-22
3.11587e-22
2.13431e-22
1.45825e-22
9.93228e-23
6.735e-23
4.53301e-23
3.00702e-23
1.93258e-23
1.14901e-23
5.36726e-24
0
0
9.39033e-10
1.90326e-09
2.90022e-09
3.93785e-09
5.02452e-09
6.1691e-09
7.38096e-09
8.67e-09
1.00466e-08
1.15215e-08
1.3106e-08
1.48115e-08
1.66497e-08
1.86323e-08
2.07712e-08
2.30777e-08
2.55634e-08
2.8239e-08
3.1115e-08
3.42012e-08
3.75065e-08
4.10392e-08
4.48063e-08
4.8814e-08
5.30671e-08
5.75691e-08
6.23221e-08
6.73265e-08
7.25813e-08
7.80835e-08
8.38283e-08
8.98089e-08
9.60164e-08
1.0244e-07
1.09067e-07
1.15881e-07
1.22867e-07
1.30002e-07
1.37268e-07
1.44638e-07
1.52088e-07
1.59591e-07
1.67116e-07
1.74633e-07
1.82111e-07
1.89514e-07
1.96809e-07
2.03962e-07
2.10936e-07
2.17696e-07
2.24207e-07
2.30434e-07
2.36343e-07
2.41901e-07
2.47076e-07
2.51838e-07
2.5616e-07
2.60016e-07
2.63383e-07
2.6624e-07
2.6857e-07
2.70359e-07
2.71595e-07
2.72271e-07
2.72383e-07
2.7193e-07
2.70915e-07
2.69344e-07
2.67227e-07
2.64576e-07
2.61409e-07
2.57745e-07
2.53604e-07
2.49013e-07
2.43998e-07
2.38588e-07
2.32814e-07
2.26709e-07
2.20307e-07
2.13641e-07
2.06747e-07
1.99661e-07
1.92418e-07
1.85053e-07
1.77601e-07
1.70095e-07
1.62569e-07
1.55054e-07
1.4758e-07
1.40174e-07
1.32864e-07
1.25674e-07
1.18627e-07
1.11742e-07
1.05039e-07
9.85335e-08
9.22389e-08
8.61674e-08
8.03286e-08
7.47302e-08
6.93777e-08
6.4275e-08
5.94241e-08
5.48254e-08
5.04776e-08
4.63783e-08
4.25234e-08
3.89081e-08
3.55264e-08
3.23713e-08
2.94352e-08
2.67099e-08
2.41866e-08
2.18563e-08
1.97095e-08
1.77367e-08
1.59283e-08
1.42746e-08
1.27661e-08
1.13932e-08
1.0147e-08
9.01825e-09
7.99847e-09
7.07929e-09
6.25274e-09
5.51124e-09
4.84759e-09
4.25501e-09
3.72712e-09
3.25795e-09
2.84193e-09
2.47389e-09
2.14904e-09
1.86297e-09
1.61164e-09
1.39131e-09
1.19862e-09
1.03047e-09
8.84069e-10
7.56895e-10
6.46669e-10
5.5135e-10
4.69104e-10
3.98299e-10
3.3748e-10
2.85353e-10
2.40777e-10
2.02743e-10
1.70363e-10
1.42857e-10
1.19543e-10
9.98262e-11
8.31884e-11
6.91797e-11
5.74105e-11
4.75447e-11
3.92925e-11
3.24053e-11
2.66697e-11
2.19037e-11
1.79521e-11
1.46828e-11
1.1984e-11
9.76092e-12
7.93372e-12
6.43517e-12
5.20883e-12
4.20744e-12
3.39151e-12
2.72812e-12
2.18994e-12
1.75428e-12
1.40237e-12
1.11872e-12
8.90589e-13
7.07507e-13
5.60894e-13
4.43739e-13
3.50325e-13
2.76002e-13
2.16995e-13
1.70249e-13
1.33295e-13
1.04146e-13
8.12017e-14
6.31809e-14
4.90572e-14
3.80116e-14
2.93918e-14
2.26795e-14
1.74637e-14
1.34194e-14
1.02904e-14
7.87448e-15
6.01326e-15
4.58242e-15
3.48478e-15
2.64455e-15
2.00274e-15
1.51354e-15
1.14146e-15
8.59054e-16
6.45175e-16
4.83538e-16
3.61643e-16
2.69913e-16
2.01032e-16
1.49418e-16
1.10824e-16
8.20281e-17
6.0588e-17
4.46587e-17
3.28489e-17
2.41119e-17
1.76619e-17
1.29104e-17
9.41753e-18
6.85535e-18
4.97987e-18
3.60995e-18
2.61144e-18
1.88519e-18
1.35807e-18
9.7631e-19
7.00402e-19
5.01421e-19
3.58222e-19
2.55386e-19
1.81692e-19
1.28995e-19
9.13905e-20
6.46138e-20
4.55874e-20
3.20966e-20
2.25511e-20
1.58114e-20
1.10629e-20
7.72435e-21
5.38207e-21
3.74223e-21
2.5966e-21
1.79793e-21
1.24232e-21
8.566e-22
5.89388e-22
4.0465e-22
2.77181e-22
1.89384e-22
1.28993e-22
8.74699e-23
5.88725e-23
3.90541e-23
2.50999e-23
1.49232e-23
6.97096e-24
0
0
1.21053e-09
2.45353e-09
3.73873e-09
5.07635e-09
6.4772e-09
7.95269e-09
9.51493e-09
1.11767e-08
1.29512e-08
1.48526e-08
1.68951e-08
1.90937e-08
2.14633e-08
2.40191e-08
2.67762e-08
2.97496e-08
3.29538e-08
3.64028e-08
4.01102e-08
4.40885e-08
4.83492e-08
5.2903e-08
5.7759e-08
6.29251e-08
6.84075e-08
7.42107e-08
8.03375e-08
8.67884e-08
9.3562e-08
1.00654e-07
1.0806e-07
1.15769e-07
1.2377e-07
1.32051e-07
1.40593e-07
1.49377e-07
1.5838e-07
1.67579e-07
1.76943e-07
1.86444e-07
1.96048e-07
2.05718e-07
2.15418e-07
2.25108e-07
2.34746e-07
2.44289e-07
2.53693e-07
2.62912e-07
2.71902e-07
2.80616e-07
2.89008e-07
2.97035e-07
3.04651e-07
3.11815e-07
3.18486e-07
3.24625e-07
3.30196e-07
3.35166e-07
3.39506e-07
3.43189e-07
3.46192e-07
3.48498e-07
3.50091e-07
3.50963e-07
3.51108e-07
3.50524e-07
3.49215e-07
3.47191e-07
3.44462e-07
3.41046e-07
3.36963e-07
3.3224e-07
3.26903e-07
3.20985e-07
3.14521e-07
3.07548e-07
3.00105e-07
2.92236e-07
2.83983e-07
2.75391e-07
2.66505e-07
2.57371e-07
2.48035e-07
2.38542e-07
2.28936e-07
2.19262e-07
2.09561e-07
1.99873e-07
1.90239e-07
1.80693e-07
1.7127e-07
1.62002e-07
1.52918e-07
1.44044e-07
1.35404e-07
1.27017e-07
1.18904e-07
1.11077e-07
1.03551e-07
9.63341e-08
8.94345e-08
8.28569e-08
7.66038e-08
7.06758e-08
6.50713e-08
5.97869e-08
5.48178e-08
5.01574e-08
4.5798e-08
4.17308e-08
3.7946e-08
3.44328e-08
3.11801e-08
2.81761e-08
2.54087e-08
2.28655e-08
2.05343e-08
1.84024e-08
1.64577e-08
1.4688e-08
1.30813e-08
1.16263e-08
1.03116e-08
9.12665e-09
8.0611e-09
7.10518e-09
6.24962e-09
5.48568e-09
4.80513e-09
4.20028e-09
3.66395e-09
3.18947e-09
2.77067e-09
2.40187e-09
2.07784e-09
1.79379e-09
1.54536e-09
1.32858e-09
1.13983e-09
9.7587e-10
8.3376e-10
7.10867e-10
6.0483e-10
5.13542e-10
4.35127e-10
3.67921e-10
3.10449e-10
2.61411e-10
2.19662e-10
1.84197e-10
1.54138e-10
1.28716e-10
1.07264e-10
8.92014e-11
7.40266e-11
6.13057e-11
5.06654e-11
4.1785e-11
3.43895e-11
2.82442e-11
2.31488e-11
1.89333e-11
1.54533e-11
1.25867e-11
1.02306e-11
8.2983e-12
6.71696e-12
5.42567e-12
4.37352e-12
3.51808e-12
2.82409e-12
2.26228e-12
1.80848e-12
1.4427e-12
1.14851e-12
9.12416e-13
7.23347e-13
5.72265e-13
4.51798e-13
3.5595e-13
2.79853e-13
2.19567e-13
1.7191e-13
1.34317e-13
1.04727e-13
8.14862e-14
6.3271e-14
4.90255e-14
3.79085e-14
2.92514e-14
2.25244e-14
1.73084e-14
1.32726e-14
1.01567e-14
7.75611e-15
5.91061e-15
4.49487e-15
3.41113e-15
2.5833e-15
1.95231e-15
1.47237e-15
1.10811e-15
8.32232e-16
6.23737e-16
4.66504e-16
3.4818e-16
2.59328e-16
1.92748e-16
1.42964e-16
1.05818e-16
7.81606e-17
5.76119e-17
4.23771e-17
3.11062e-17
2.27855e-17
1.66557e-17
1.21497e-17
8.8443e-18
6.42475e-18
4.65741e-18
3.36921e-18
2.43224e-18
1.75219e-18
1.25965e-18
9.0368e-19
6.46955e-19
4.62199e-19
3.29518e-19
2.34436e-19
1.66442e-19
1.17923e-19
8.33734e-20
5.88237e-20
4.14163e-20
2.90995e-20
2.0403e-20
1.42757e-20
9.9677e-21
6.94524e-21
4.82919e-21
3.35085e-21
2.32021e-21
1.60322e-21
1.10546e-21
7.60627e-22
5.22222e-22
3.57721e-22
2.44416e-22
1.66478e-22
1.1289e-22
7.59828e-23
5.0405e-23
3.23954e-23
1.92609e-23
8.99725e-24
0
0
1.55346e-09
3.14859e-09
4.79788e-09
6.51444e-09
8.31213e-09
1.02056e-08
1.22104e-08
1.43429e-08
1.66202e-08
1.90601e-08
2.16813e-08
2.45026e-08
2.75435e-08
3.08232e-08
3.43613e-08
3.81769e-08
4.22887e-08
4.67147e-08
5.14721e-08
5.65771e-08
6.20447e-08
6.78882e-08
7.41195e-08
8.07487e-08
8.77837e-08
9.52305e-08
1.03092e-07
1.1137e-07
1.20062e-07
1.29163e-07
1.38665e-07
1.48558e-07
1.58825e-07
1.6945e-07
1.80411e-07
1.91683e-07
2.03236e-07
2.15039e-07
2.27056e-07
2.39247e-07
2.5157e-07
2.63979e-07
2.76426e-07
2.8886e-07
3.01227e-07
3.13472e-07
3.25538e-07
3.37369e-07
3.48904e-07
3.60085e-07
3.70854e-07
3.81154e-07
3.90927e-07
4.00119e-07
4.08679e-07
4.16556e-07
4.23704e-07
4.30082e-07
4.35651e-07
4.40377e-07
4.44231e-07
4.47189e-07
4.49235e-07
4.50353e-07
4.50539e-07
4.4979e-07
4.48111e-07
4.45513e-07
4.42012e-07
4.37629e-07
4.3239e-07
4.26329e-07
4.19482e-07
4.11888e-07
4.03594e-07
3.94646e-07
3.85097e-07
3.74999e-07
3.6441e-07
3.53385e-07
3.41983e-07
3.30262e-07
3.18282e-07
3.06101e-07
2.93775e-07
2.81361e-07
2.68913e-07
2.56483e-07
2.4412e-07
2.31871e-07
2.1978e-07
2.07888e-07
1.96231e-07
1.84844e-07
1.73756e-07
1.62995e-07
1.52583e-07
1.42541e-07
1.32883e-07
1.23622e-07
1.14768e-07
1.06328e-07
9.83039e-08
9.06968e-08
8.35049e-08
7.67239e-08
7.03473e-08
6.43668e-08
5.87727e-08
5.35534e-08
4.86964e-08
4.41881e-08
4.0014e-08
3.6159e-08
3.26077e-08
2.93441e-08
2.63524e-08
2.36167e-08
2.1121e-08
1.88499e-08
1.67881e-08
1.49208e-08
1.32336e-08
1.17129e-08
1.03455e-08
9.11872e-09
8.02074e-09
7.04034e-09
6.16695e-09
5.3907e-09
4.70239e-09
4.09345e-09
3.55597e-09
3.08266e-09
2.6668e-09
2.30225e-09
1.98341e-09
1.70519e-09
1.46294e-09
1.25251e-09
1.07012e-09
9.12397e-10
7.76303e-10
6.59138e-10
5.58495e-10
4.72237e-10
3.98472e-10
3.35532e-10
2.81947e-10
2.36428e-10
1.97846e-10
1.65217e-10
1.37682e-10
1.14498e-10
9.50207e-11
7.86927e-11
6.50352e-11
5.36364e-11
4.41437e-11
3.62555e-11
2.97151e-11
2.4304e-11
1.9837e-11
1.61574e-11