# vtk DataFile Version 3.0
2D field
ASCII
DATASET STRUCTURED_POINTS
DIMENSIONS 257 257 1
ORIGIN 0 0 0
SPACING 0.00390625 0.00390625 1
POINT_DATA 66049
SCALARS temperature double 1
LOOKUP_TABLE default
0
0
0
0
0
0
0
0
0
0
0
0
0
0
0
0
0
0
0
0
0
0
0
0
0
0
0
0
0
0
0
0
0
0
0
0
0
0
0
0
0
0
0
0
0
0
0
0
0
0
0
0
0
0
0
0
0
0
0
0
0
0
0
0
0
0
0
0
0
0
0
0
0
0
0
0
0
0
0
0
0
0
0
0
0
0
0
0
0
0
0
0
0
0
0
0
0
0
0
0
0
0
0
0
0
0
0
0
0
0
0
0
0
0
0
0
0
0
0
0
0
0
0
0
0
0
0
0
0
0
0
0
0
0
0
0
0
0
0
0
0
0
0
0
0
0
0
0
0
0
0
0
0
0
0
0
0
0
0
0
0
0
0
0
0
0
0
0
0
0
0
0
0
0
0
0
0
0
0
0
0
0
0
0
0
0
0
0
0
0
0
0
0
0
0
0
0
0
0
0
0
0
0
0
0
0
0
0
0
0
0
0
0
0
0
0
0
0
0
0
0
0
0
0
0
0
0
0
0
0
0
0
0
0
0
0
0
0
0
0
0
0
0
0
0
0
0
0
0
0
0
0
0
0
0
0
0
0
2.67618e-11
5.42147e-11
8.25504e-11
1.1198e-10
1.42742e-10
1.75099e-10
2.09349e-10
2.45817e-10
2.84856e-10
3.26843e-10
3.72174e-10
4.21256e-10
4.74505e-10
5.32335e-10
5.95161e-10
6.63385e-10
7.374e-10
8.17583e-10
9.04292e-10
9.97865e-10
1.09862e-09
1.20683e-09
1.32277e-09
1.44665e-09
1.57866e-09
1.71895e-09
1.86761e-09
2.02469e-09
2.1902e-09
2.36406e-09
2.54616e-09
2.7363e-09
2.93421e-09
3.13958e-09
3.35199e-09
3.57095e-09
3.79592e-09
4.02626e-09
4.26126e-09
4.50012e-09
4.74201e-09
4.98599e-09
5.23109e-09
5.47625e-09
5.7204e-09
5.96239e-09
6.20106e-09
6.4352e-09
6.66361e-09
6.88508e-09
7.09837e-09
7.30231e-09
7.49571e-09
7.67744e-09
7.84642e-09
8.00162e-09
8.14208e-09
8.26693e-09
8.37537e-09
8.46673e-09
8.5404e-09
8.59591e-09
8.6329e-09
8.65113e-09
8.65048e-09
8.63096e-09
8.59268e-09
8.53591e-09
8.46101e-09
8.36847e-09
8.25887e-09
8.13292e-09
7.99142e-09
7.83524e-09
7.66535e-09
7.48278e-09
7.28862e-09
7.084e-09
6.8701e-09
6.64812e-09
6.41927e-09
6.18477e-09
5.94584e-09
5.70366e-09
5.4594e-09
5.2142e-09
4.96915e-09
4.72528e-09
4.48356e-09
4.24493e-09
4.01023e-09
3.78024e-09
3.55566e-09
3.33712e-09
3.12518e-09
2.92031e-09
2.72292e-09
2.53333e-09
2.35179e-09
2.1785e-09
2.01357e-09
1.85707e-09
1.70899e-09
1.56929e-09
1.43786e-09
1.31456e-09
1.19921e-09
1.0916e-09
9.91475e-10
8.98568e-10
8.12589e-10
7.33232e-10
6.60182e-10
5.93111e-10
5.31692e-10
4.75592e-10
4.24483e-10
3.78039e-10
3.35942e-10
2.9788e-10
2.63555e-10
2.32676e-10
2.04966e-10
1.80162e-10
1.58014e-10
1.38286e-10
1.20757e-10
1.0522e-10
9.14815e-11
7.93633e-11
6.87e-11
5.93395e-11
5.11426e-11
4.39817e-11
3.77408e-11
3.23148e-11
2.76085e-11
2.35361e-11
2.00206e-11
1.6993e-11
1.43917e-11
1.21621e-11
1.02554e-11
8.62874e-12
7.24424e-12
6.06861e-12
5.07266e-12
4.2309e-12
3.52111e-12
2.924e-12
2.42285e-12
2.0032e-12
1.65262e-12
1.36042e-12
1.11744e-12
9.15848e-13
7.48986e-13
6.11187e-13
4.97651e-13
4.04321e-13
3.27776e-13
2.65142e-13
2.14008e-13
1.72358e-13
1.38511e-13
1.11067e-13
8.88665e-14
7.0948e-14
5.65187e-14
4.49257e-14
3.56325e-14
2.82e-14
2.2269e-14
1.7547e-14
1.37961e-14
1.08232e-14
8.47244e-15
6.61774e-15
5.15776e-15
4.01109e-15
3.11253e-15
2.40998e-15
1.86193e-15
1.43537e-15
1.10411e-15
8.47447e-16
6.49025e-16
4.95975e-16
3.78188e-16
2.87743e-16
2.1845e-16
1.65481e-16
1.25082e-16
9.43388e-17
7.09962e-17
5.33125e-17
3.99459e-17
2.98652e-17
2.22796e-17
1.65844e-17
1.2318e-17
9.12912e-18
6.75099e-18
4.98145e-18
3.66769e-18
2.69451e-18
1.97522e-18
1.44477e-18
1.05446e-18
7.67917e-19
5.58015e-19
4.046e-19
2.92721e-19
2.11316e-19
1.52216e-19
1.09404e-19
7.84619e-20
5.61476e-20
4.00916e-20
2.85643e-20
2.03068e-20
1.44049e-20
1.01959e-20
7.20095e-21
5.07461e-21
3.56832e-21
2.50365e-21
1.7528e-21
1.22444e-21
8.53481e-22
5.93604e-22
4.11954e-22
2.85265e-22
1.97104e-22
1.35891e-22
9.34837e-23
6.41694e-23
4.3951e-23
3.0037e-23
2.04829e-23
1.39372e-23
9.46251e-24
6.41037e-24
4.33314e-24
2.92253e-24
1.96669e-24
1.32037e-24
8.84205e-25
5.90339e-25
3.92513e-25
2.59208e-25
1.68915e-25
1.06864e-25
6.27413e-26
2.9068e-26
0
0
5.54365e-11
1.12305e-10
1.71001e-10
2.31965e-10
2.95686e-10
3.62715e-10
4.33663e-10
5.09205e-10
5.90074e-10
6.77051e-10
7.70953e-10
8.72625e-10
9.82928e-10
1.10272e-09
1.23286e-09
1.37419e-09
1.52751e-09
1.6936e-09
1.87322e-09
2.06705e-09
2.27575e-09
2.49992e-09
2.74007e-09
2.99669e-09
3.27014e-09
3.56074e-09
3.86869e-09
4.19408e-09
4.53692e-09
4.89707e-09
5.27427e-09
5.66813e-09
6.07811e-09
6.50351e-09
6.9435e-09
7.39708e-09
7.86309e-09
8.34023e-09
8.827e-09
9.3218e-09
9.82286e-09
1.03283e-08
1.0836e-08
1.13438e-08
1.18495e-08
1.23508e-08
1.28452e-08
1.33302e-08
1.38033e-08
1.42621e-08
1.47039e-08
1.51264e-08
1.5527e-08
1.59034e-08
1.62535e-08
1.65749e-08
1.68659e-08
1.71245e-08
1.73492e-08
1.75384e-08
1.7691e-08
1.7806e-08
1.78826e-08
1.79204e-08
1.7919e-08
1.78786e-08
1.77993e-08
1.76817e-08
1.75266e-08
1.73349e-08
1.71078e-08
1.68469e-08
1.65538e-08
1.62303e-08
1.58784e-08
1.55002e-08
1.5098e-08
1.46742e-08
1.42311e-08
1.37713e-08
1.32972e-08
1.28115e-08
1.23165e-08
1.18149e-08
1.13089e-08
1.0801e-08
1.02934e-08
9.78822e-09
9.28753e-09
8.79322e-09
8.30705e-09
7.83063e-09
7.36543e-09
6.91274e-09
6.47372e-09
6.04934e-09
5.64045e-09
5.24772e-09
4.87167e-09
4.51271e-09
4.17106e-09
3.84687e-09
3.54014e-09
3.25075e-09
2.9785e-09
2.72309e-09
2.48416e-09
2.26124e-09
2.05383e-09
1.86137e-09
1.68327e-09
1.51889e-09
1.36756e-09
1.22863e-09
1.1014e-09
9.85189e-10
8.79317e-10
7.83109e-10
6.95905e-10
6.17062e-10
5.45956e-10
4.8199e-10
4.2459e-10
3.73209e-10
3.27329e-10
2.86463e-10
2.50151e-10
2.17966e-10
1.89506e-10
1.64403e-10
1.42314e-10
1.22924e-10
1.05944e-10
9.11097e-11
7.81817e-11
6.69416e-11
5.71923e-11
4.87562e-11
4.14737e-11
3.52019e-11
2.98133e-11
2.51944e-11
2.12447e-11
1.7875e-11
1.50069e-11
1.25715e-11
1.05084e-11
8.76463e-12
7.29426e-12
6.05731e-12
5.01914e-12
4.14981e-12
3.42356e-12
2.81824e-12
2.31488e-12
1.89727e-12
1.5516e-12
1.26614e-12
1.03094e-12
8.37596e-13
6.79026e-13
5.49274e-13
4.43344e-13
3.57062e-13
2.86943e-13
2.30091e-13
1.84099e-13
1.46979e-13
1.17087e-13
9.30701e-14
7.38182e-14
5.84206e-14
4.61338e-14
3.63515e-14
2.85808e-14
2.24221e-14
1.75521e-14
1.37098e-14
1.06852e-14
8.30971e-15
6.44818e-15
4.99274e-15
3.85736e-15
2.97366e-15
2.2874e-15
1.75566e-15
1.34459e-15
1.02752e-15
7.835e-16
5.96125e-16
4.5257e-16
3.42833e-16
2.59137e-16
1.95446e-16
1.47086e-16
1.1045e-16
8.27582e-17
6.18735e-17
4.61581e-17
3.43589e-17
2.552e-17
1.89135e-17
1.39866e-17
1.03205e-17
7.59869e-18
5.58247e-18
4.09225e-18
2.99328e-18
2.18465e-18
1.59098e-18
1.15611e-18
8.3826e-19
6.06469e-19
4.37812e-19
3.15366e-19
2.26669e-19
1.62561e-19
1.1633e-19
8.30641e-20
5.91813e-20
4.20731e-20
2.98451e-20
2.11247e-20
1.49195e-20
1.0514e-20
7.39319e-21
5.18732e-21
3.63164e-21
2.53694e-21
1.76834e-21
1.2299e-21
8.53538e-22
5.91049e-22
4.08388e-22
2.81559e-22
1.93694e-22
1.32956e-22
9.10647e-23
6.22357e-23
4.24401e-23
2.88776e-23
1.96062e-23
1.32822e-23
8.97824e-24
6.05548e-24
4.07499e-24
2.73582e-24
1.83209e-24
1.2232e-24
8.13299e-25
5.37088e-25
3.49999e-25
2.21427e-25
1.30003e-25
6.02304e-26
0
0
8.80573e-11
1.78389e-10
2.71625e-10
3.68462e-10
4.6968e-10
5.7615e-10
6.88847e-10
8.08843e-10
9.37299e-10
1.07546e-09
1.22461e-09
1.38611e-09
1.56132e-09
1.75161e-09
1.95833e-09
2.18281e-09
2.42635e-09
2.69018e-09
2.97549e-09
3.28337e-09
3.61488e-09
3.97094e-09
4.35241e-09
4.76002e-09
5.19438e-09
5.65596e-09
6.14511e-09
6.66197e-09
7.20654e-09
7.7786e-09
8.37775e-09
9.00335e-09
9.65456e-09
1.03303e-08
1.10291e-08
1.17496e-08
1.24898e-08
1.32477e-08
1.40209e-08
1.48068e-08
1.56027e-08
1.64055e-08
1.72119e-08
1.80186e-08
1.88219e-08
1.96181e-08
2.04033e-08
2.11737e-08
2.19253e-08
2.26539e-08
2.33557e-08
2.40267e-08
2.46631e-08
2.5261e-08
2.5817e-08
2.63277e-08
2.67898e-08
2.72006e-08
2.75574e-08
2.7858e-08
2.81004e-08
2.8283e-08
2.84047e-08
2.84647e-08
2.84626e-08
2.83984e-08
2.82724e-08
2.80857e-08
2.78392e-08
2.75347e-08
2.71741e-08
2.67597e-08
2.62942e-08
2.57803e-08
2.52213e-08
2.46206e-08
2.39818e-08
2.33086e-08
2.26048e-08
2.18744e-08
2.11214e-08
2.03499e-08
1.95637e-08
1.87669e-08
1.79632e-08
1.71565e-08
1.63502e-08
1.55478e-08
1.47525e-08
1.39673e-08
1.31951e-08
1.24383e-08
1.16994e-08
1.09804e-08
1.0283e-08
9.60893e-09
8.95945e-09
8.33563e-09
7.73832e-09
7.16813e-09
6.62546e-09
6.11051e-09
5.62329e-09
5.16362e-09
4.73117e-09
4.32548e-09
3.94594e-09
3.59185e-09
3.2624e-09
2.9567e-09
2.6738e-09
2.41268e-09
2.17231e-09
1.95163e-09
1.74953e-09
1.56494e-09
1.39676e-09
1.24394e-09
1.10542e-09
9.80186e-10
8.67239e-10
7.65631e-10
6.74453e-10
5.92836e-10
5.19958e-10
4.55043e-10
3.97363e-10
3.46237e-10
3.0103e-10
2.61155e-10
2.26066e-10
1.95265e-10
1.68292e-10
1.44729e-10
1.24193e-10
1.06338e-10
9.08512e-11
7.74504e-11
6.58821e-11
5.59193e-11
4.73594e-11
4.00223e-11
3.3748e-11
2.83952e-11
2.38392e-11
1.99705e-11
1.66931e-11
1.39231e-11
1.15874e-11
9.62243e-12
7.97324e-12
6.59227e-12
5.43858e-12
4.477e-12
3.67738e-12
3.01398e-12
2.46486e-12
2.01138e-12
1.63775e-12
1.33061e-12
1.07871e-12
8.72582e-13
7.04303e-13
5.67235e-13
4.55845e-13
3.65528e-13
2.92466e-13
2.33496e-13
1.86009e-13
1.47855e-13
1.17271e-13
9.28102e-14
7.32908e-14
5.77502e-14
4.54054e-14
3.56214e-14
2.78846e-14
2.17805e-14
1.69755e-14
1.32016e-14
1.02442e-14
7.93197e-15
6.12821e-15
4.72428e-15
3.63402e-15
2.78926e-15
2.13619e-15
1.63245e-15
1.24477e-15
9.47089e-16
7.19018e-16
5.44677e-16
4.11706e-16
3.10517e-16
2.33686e-16
1.7548e-16
1.31484e-16
9.83036e-17
7.33354e-17
5.45893e-17
4.05462e-17
3.00499e-17
2.22221e-17
1.63974e-17
1.2073e-17
8.86958e-18
6.50191e-18
4.75585e-18
3.47107e-18
2.52784e-18
1.83689e-18
1.33188e-18
9.63601e-19
6.95629e-19
5.0108e-19
3.60151e-19
2.58293e-19
1.84836e-19
1.31981e-19
9.4034e-20
6.68508e-20
4.74216e-20
3.35657e-20
2.37062e-20
1.67062e-20
1.17474e-20
8.24244e-21
5.77054e-21
4.03113e-21
2.80986e-21
1.9543e-21
1.35627e-21
9.39177e-22
6.48931e-22
4.47401e-22
3.07783e-22
2.11271e-22
1.44705e-22
9.88949e-23
6.74393e-23
4.58881e-23
3.11554e-23
2.11063e-23
1.42671e-23
9.62265e-24
6.47552e-24
4.34749e-24
2.91138e-24
1.9438e-24
1.29243e-24
8.535e-25
5.56194e-25
3.51879e-25
2.06593e-25
9.57149e-26
0
0
1.26905e-10
2.57087e-10
3.91455e-10
5.31014e-10
6.76885e-10
8.30327e-10
9.92743e-10
1.16568e-09
1.3508e-09
1.54991e-09
1.76487e-09
1.99762e-09
2.25013e-09
2.52436e-09
2.82227e-09
3.14579e-09
3.49676e-09
3.87698e-09
4.28814e-09
4.73185e-09
5.20959e-09
5.72273e-09
6.27247e-09
6.85989e-09
7.48586e-09
8.15106e-09
8.85598e-09
9.60084e-09
1.03856e-08
1.121e-08
1.20735e-08
1.29751e-08
1.39135e-08
1.48873e-08
1.58945e-08
1.69327e-08
1.79995e-08
1.90916e-08
2.02059e-08
2.13385e-08
2.24854e-08
2.36423e-08
2.48045e-08
2.59669e-08
2.71246e-08
2.8272e-08
2.94037e-08
3.05139e-08
3.15969e-08
3.2647e-08
3.36584e-08
3.46254e-08
3.55424e-08
3.64041e-08
3.72053e-08
3.79412e-08
3.86072e-08
3.91992e-08
3.97134e-08
4.01466e-08
4.04959e-08
4.07591e-08
4.09345e-08
4.1021e-08
4.10179e-08
4.09254e-08
4.07439e-08
4.04747e-08
4.01196e-08
3.96808e-08
3.91612e-08
3.8564e-08
3.78931e-08
3.71526e-08
3.6347e-08
3.54814e-08
3.45607e-08
3.35905e-08
3.25763e-08
3.15238e-08
3.04387e-08
2.93268e-08
2.81939e-08
2.70456e-08
2.58874e-08
2.47248e-08
2.35628e-08
2.24064e-08
2.12603e-08
2.01288e-08
1.9016e-08
1.79254e-08
1.68605e-08
1.58243e-08
1.48193e-08
1.38479e-08
1.29119e-08
1.20129e-08
1.11521e-08
1.03304e-08
9.54834e-09
8.80623e-09
8.10407e-09
7.44162e-09
6.8184e-09
6.23374e-09
5.68678e-09
5.17648e-09
4.70169e-09
4.26113e-09
3.85342e-09
3.47711e-09
3.13071e-09
2.81266e-09
2.5214e-09
2.25538e-09
2.01301e-09
1.79277e-09
1.59314e-09
1.41265e-09
1.24987e-09
1.10344e-09
9.72031e-10
8.54405e-10
7.49373e-10
6.55818e-10
5.7269e-10
4.99007e-10
4.33855e-10
3.76386e-10
3.25816e-10
2.81425e-10
2.42551e-10
2.08591e-10
1.78993e-10
1.5326e-10
1.3094e-10
1.11627e-10
9.49538e-11
8.0595e-11
6.82581e-11
5.76834e-11
4.86405e-11
4.09257e-11
3.43593e-11
2.87835e-11
2.40598e-11
2.00675e-11
1.6701e-11
1.3869e-11
1.1492e-11
9.5016e-12
7.83878e-12
6.45284e-12
5.30034e-12
4.34417e-12
3.55272e-12
2.89911e-12
2.36058e-12
1.91789e-12
1.55481e-12
1.25771e-12
1.01517e-12
8.17602e-13
6.57048e-13
5.26869e-13
4.21559e-13
3.36561e-13
2.68114e-13
2.13121e-13
1.69037e-13
1.33779e-13
1.05643e-13
8.32431e-14
6.54491e-14
5.13463e-14
4.01943e-14
3.13957e-14
2.44695e-14
1.90296e-14
1.47668e-14
1.14338e-14
8.83372e-15
6.81001e-15
5.23843e-15
4.02073e-15
3.07934e-15
2.35321e-15
1.79437e-15
1.36525e-15
1.03649e-15
7.85174e-16
5.93493e-16
4.47626e-16
3.36872e-16
2.52967e-16
1.89544e-16
1.41712e-16
1.05719e-16
7.86956e-17
5.84515e-17
4.33201e-17
3.20356e-17
2.36388e-17
1.74047e-17
1.27867e-17
9.37343e-18
6.85626e-18
5.00409e-18
3.64429e-18
2.64819e-18
1.92014e-18
1.38921e-18
1.00288e-18
7.22406e-19
5.19233e-19
3.72384e-19
2.66483e-19
1.90281e-19
1.35572e-19
9.63817e-20
6.83703e-20
4.83936e-20
3.41789e-20
2.40866e-20
1.69372e-20
1.18839e-20
8.31997e-21
5.8121e-21
4.05129e-21
2.81775e-21
1.95551e-21
1.35414e-21
9.35659e-22
6.45088e-22
4.43781e-22
3.04626e-22
2.08647e-22
1.42596e-22
9.72406e-23
6.61663e-23
4.49235e-23
3.04337e-23
2.05722e-23
1.38753e-23
9.33737e-24
6.2689e-24
4.19812e-24
2.80291e-24
1.86366e-24
1.23074e-24
8.02032e-25
5.07412e-25
2.9791e-25
1.38022e-25
0
0
1.74646e-10
3.53801e-10
5.38719e-10
7.3078e-10
9.31528e-10
1.1427e-09
1.36621e-09
1.60421e-09
1.85898e-09
2.13299e-09
2.42882e-09
2.74913e-09
3.09663e-09
3.47402e-09
3.88401e-09
4.32923e-09
4.81223e-09
5.33547e-09
5.90131e-09
6.51192e-09
7.16938e-09
7.87553e-09
8.63207e-09
9.44045e-09
1.03019e-08
1.12173e-08
1.21874e-08
1.32124e-08
1.42924e-08
1.54269e-08
1.66151e-08
1.78558e-08
1.91473e-08
2.04873e-08
2.18733e-08
2.33021e-08
2.47701e-08
2.62731e-08
2.78065e-08
2.93651e-08
3.09434e-08
3.25354e-08
3.41347e-08
3.57344e-08
3.73275e-08
3.89065e-08
4.04638e-08
4.19916e-08
4.3482e-08
4.49271e-08
4.63189e-08
4.76496e-08
4.89115e-08
5.00973e-08
5.11999e-08
5.22126e-08
5.31291e-08
5.39438e-08
5.46514e-08
5.52475e-08
5.57282e-08
5.60904e-08
5.63318e-08
5.64508e-08
5.64466e-08
5.63192e-08
5.60695e-08
5.56991e-08
5.52104e-08
5.46066e-08
5.38915e-08
5.30698e-08
5.21465e-08
5.11275e-08
5.0019e-08
4.88277e-08
4.75608e-08
4.62257e-08
4.483e-08
4.33816e-08
4.18884e-08
4.03583e-08
3.87993e-08
3.7219e-08
3.56253e-08
3.40253e-08
3.24263e-08
3.0835e-08
2.92578e-08
2.77007e-08
2.61692e-08
2.46685e-08
2.3203e-08
2.1777e-08
2.0394e-08
1.90572e-08
1.77691e-08
1.6532e-08
1.53474e-08
1.42166e-08
1.31403e-08
1.21191e-08
1.11528e-08
1.02411e-08
9.38349e-09
8.5789e-09
7.82618e-09
7.12393e-09
6.47053e-09
5.86423e-09
5.30315e-09
4.78528e-09
4.30855e-09
3.87086e-09
3.47003e-09
3.10392e-09
2.77038e-09
2.46728e-09
2.19255e-09
1.94415e-09
1.72013e-09
1.51861e-09
1.33776e-09
1.17588e-09
1.03134e-09
9.02581e-10
7.88177e-10
6.86771e-10
5.97105e-10
5.18013e-10
4.48416e-10
3.87322e-10
3.33822e-10
2.87083e-10
2.46349e-10
2.10933e-10
1.80215e-10
1.53633e-10
1.30687e-10
1.10925e-10
9.39456e-11
7.93916e-11
6.69458e-11
5.63278e-11
4.72904e-11
3.96162e-11
3.31149e-11
2.76201e-11
2.29867e-11
1.90889e-11
1.58173e-11
1.30778e-11
1.07892e-11
8.88165e-12
7.29539e-12
5.97934e-12
4.88999e-12
3.99038e-12
3.24915e-12
2.63983e-12
2.14009e-12
1.73117e-12
1.39732e-12
1.12539e-12
9.04398e-13
7.25215e-13
5.80262e-13
4.63267e-13
3.69053e-13
2.93357e-13
2.32678e-13
1.84146e-13
1.45419e-13
1.14585e-13
9.00918e-14
7.06794e-14
5.53287e-14
4.32173e-14
3.36833e-14
2.61952e-14
2.03273e-14
1.57393e-14
1.21602e-14
9.3745e-15
7.21114e-15
5.53489e-15
4.23901e-15
3.23943e-15
2.47015e-15
1.87944e-15
1.42686e-15
1.0809e-15
8.17027e-16
6.16224e-16
4.63757e-16
3.4825e-16
2.6094e-16
1.95093e-16
1.45542e-16
1.0834e-16
8.04702e-17
5.96392e-17
4.4104e-17
3.25442e-17
2.39617e-17
1.7604e-17
1.29049e-17
9.43941e-18
6.88947e-18
5.01736e-18
3.64598e-18
2.64363e-18
1.91266e-18
1.38078e-18
9.94621e-19
7.14892e-19
5.12711e-19
3.66905e-19
2.61989e-19
1.86664e-19
1.32705e-19
9.41375e-20
6.66326e-20
4.70608e-20
3.3165e-20
2.33211e-20
1.63632e-20
1.1456e-20
8.00293e-21
5.57843e-21
3.87993e-21
2.69267e-21
1.86462e-21
1.28839e-21
8.88285e-22
6.1109e-22
4.19475e-22
2.87313e-22
1.96359e-22
1.33905e-22
9.11147e-23
6.18625e-23
4.19096e-23
2.83297e-23
1.91076e-23
1.28585e-23
8.633e-24
5.78133e-24
3.85999e-24
2.56653e-24
1.69492e-24
1.10453e-24
6.98793e-25
4.10276e-25
1.90082e-25
0
0
2.34493e-10
4.75041e-10
7.23327e-10
9.81205e-10
1.25075e-09
1.53428e-09
1.8344e-09
2.15395e-09
2.49603e-09
2.86394e-09
3.26115e-09
3.69123e-09
4.1578e-09
4.66452e-09
5.215e-09
5.81277e-09
6.46128e-09
7.16382e-09
7.92353e-09
8.74338e-09
9.62611e-09
1.05742e-08
1.159e-08
1.26753e-08
1.38319e-08
1.5061e-08
1.63635e-08
1.77397e-08
1.91897e-08
2.0713e-08
2.23083e-08
2.39741e-08
2.5708e-08
2.75072e-08
2.93681e-08
3.12864e-08
3.32573e-08
3.52752e-08
3.7334e-08
3.94266e-08
4.15457e-08
4.36831e-08
4.58303e-08
4.79781e-08
5.0117e-08
5.2237e-08
5.43278e-08
5.63791e-08
5.83801e-08
6.03202e-08
6.21888e-08
6.39754e-08
6.56697e-08
6.72618e-08
6.87422e-08
7.01018e-08
7.13324e-08
7.24261e-08
7.33762e-08
7.41765e-08
7.48219e-08
7.53083e-08
7.56324e-08
7.57921e-08
7.57865e-08
7.56155e-08
7.52803e-08
7.4783e-08
7.41269e-08
7.33162e-08
7.23562e-08
7.12529e-08
7.00133e-08
6.86452e-08
6.71569e-08
6.55576e-08
6.38566e-08
6.20641e-08
6.01903e-08
5.82457e-08
5.62409e-08
5.41866e-08
5.20934e-08
4.99718e-08
4.7832e-08
4.56839e-08
4.3537e-08
4.14005e-08
3.92829e-08
3.71924e-08
3.51362e-08
3.31212e-08
3.11537e-08
2.92391e-08
2.73823e-08
2.55874e-08
2.3858e-08
2.2197e-08
2.06065e-08
1.90882e-08
1.76432e-08
1.6272e-08
1.49746e-08
1.37506e-08
1.25991e-08
1.15188e-08
1.05082e-08
9.56526e-09
8.68796e-09
7.87391e-09
7.12056e-09
6.42523e-09
5.78514e-09
5.19745e-09
4.65927e-09
4.1677e-09
3.71986e-09
3.31289e-09
2.944e-09
2.61048e-09
2.30969e-09
2.0391e-09
1.79628e-09
1.57892e-09
1.38483e-09
1.21195e-09
1.05833e-09
9.22174e-10
8.01776e-10
6.95575e-10
6.02124e-10
5.20091e-10
4.48252e-10
3.85493e-10
3.30797e-10
2.83242e-10
2.41994e-10
2.06301e-10
1.75489e-10
1.48953e-10
1.26153e-10
1.0661e-10
8.98974e-11
7.56394e-11
6.35038e-11
5.31988e-11
4.44687e-11
3.70901e-11
3.08682e-11
2.5634e-11
2.12408e-11
1.75621e-11
1.44888e-11
1.19272e-11
9.79701e-12
8.02972e-12
6.56686e-12
5.35877e-12
4.36338e-12
3.54512e-12
2.87402e-12
2.32487e-12
1.87653e-12
1.51135e-12
1.21458e-12
9.73945e-13
7.79281e-13
6.22162e-13
4.95637e-13
3.93979e-13
3.12488e-13
2.47311e-13
1.953e-13
1.53891e-13
1.20997e-13
9.49255e-14
7.43092e-14
5.80433e-14
4.52389e-14
3.51821e-14
2.73011e-14
2.11393e-14
1.63323e-14
1.25909e-14
9.68535e-15
7.43401e-15
5.69352e-15
4.35099e-15
3.31776e-15
2.52436e-15
1.9165e-15
1.45182e-15
1.09741e-15
8.27701e-16
6.22913e-16
4.67769e-16
3.50497e-16
2.62051e-16
1.95496e-16
1.45525e-16
1.08091e-16
8.01104e-17
5.92431e-17
4.37155e-17
3.21872e-17
2.36472e-17
1.7335e-17
1.268e-17
9.25471e-18
6.73993e-18
4.89775e-18
3.5513e-18
2.56937e-18
1.85488e-18
1.33614e-18
9.60371e-19
6.88769e-19
4.92898e-19
3.51957e-19
2.50767e-19
1.78279e-19
1.26468e-19
8.95172e-20
6.32241e-20
4.45561e-20
3.13314e-20
2.19837e-20
1.53911e-20
1.0752e-20
7.49472e-21
5.21279e-21
3.61771e-21
2.50521e-21
1.73103e-21
1.19347e-21
8.21048e-22
5.63602e-22
3.86034e-22
2.63831e-22
1.79918e-22
1.22425e-22
8.31213e-23
5.6312e-23
3.80656e-23
2.56745e-23
1.72779e-23
1.16002e-23
7.76845e-24
5.18675e-24
3.44874e-24
2.27754e-24
1.48422e-24
9.39013e-25
5.51317e-25
2.55428e-25
0
0
3.10392e-10
6.28801e-10
9.57452e-10
1.2988e-09
1.65559e-09
2.0309e-09
2.42816e-09
2.85115e-09
3.30396e-09
3.79096e-09
4.31674e-09
4.88602e-09
5.50361e-09
6.17434e-09
6.90299e-09
7.69424e-09
8.55264e-09
9.48256e-09
1.04882e-08
1.15733e-08
1.27418e-08
1.39967e-08
1.53412e-08
1.67778e-08
1.83087e-08
1.99356e-08
2.16595e-08
2.34812e-08
2.54004e-08
2.74166e-08
2.95282e-08
3.17331e-08
3.40281e-08
3.64096e-08
3.88726e-08
4.14118e-08
4.40205e-08
4.66914e-08
4.94164e-08
5.21862e-08
5.4991e-08
5.78202e-08
6.06622e-08
6.3505e-08
6.6336e-08
6.9142e-08
7.19095e-08
7.46245e-08
7.7273e-08
7.9841e-08
8.23143e-08
8.4679e-08
8.69216e-08
8.90289e-08
9.09883e-08
9.27879e-08
9.44166e-08
9.58643e-08
9.71218e-08
9.81811e-08
9.90354e-08
9.96792e-08
1.00108e-07
1.0032e-07
1.00312e-07
1.00086e-07
9.96423e-08
9.89841e-08
9.81157e-08
9.70427e-08
9.5772e-08
9.43118e-08
9.26711e-08
9.08603e-08
8.88904e-08
8.67736e-08
8.45222e-08
8.21497e-08
7.96695e-08
7.70956e-08
7.44421e-08
7.1723e-08
6.89525e-08
6.61444e-08
6.33121e-08
6.04689e-08
5.76273e-08
5.47994e-08
5.19966e-08
4.92295e-08
4.65079e-08
4.38409e-08
4.12367e-08
3.87025e-08
3.62447e-08
3.3869e-08
3.15799e-08
2.93813e-08
2.72761e-08
2.52665e-08
2.33538e-08
2.15389e-08
1.98216e-08
1.82014e-08
1.66772e-08
1.52473e-08
1.39095e-08
1.26615e-08
1.15002e-08
1.04227e-08
9.4255e-09
8.50512e-09
7.65785e-09
6.87994e-09
6.16756e-09
5.51688e-09
4.92407e-09
4.38537e-09
3.89707e-09
3.45559e-09
3.05743e-09
2.69925e-09
2.37782e-09
2.0901e-09
1.83318e-09
1.60433e-09
1.40099e-09
1.22075e-09
1.06137e-09
9.20789e-10
7.97084e-10
6.88491e-10
5.93394e-10
5.10316e-10
4.37911e-10
3.74959e-10
3.20355e-10
2.73106e-10
2.32317e-10
1.97188e-10
1.67006e-10
1.41134e-10
1.19011e-10
1.00136e-10
8.40701e-11
7.04281e-11
5.88708e-11
4.91027e-11
4.08659e-11
3.39365e-11
2.81206e-11
2.32504e-11
1.91818e-11
1.57905e-11
1.29705e-11
1.06308e-11
8.69408e-12
7.09468e-12
5.77687e-12
4.69357e-12
3.80508e-12
3.07804e-12
2.48448e-12
2.001e-12
1.60808e-12
1.2895e-12
1.03177e-12
8.23748e-13
6.5623e-13
5.21637e-13
4.13743e-13
3.27449e-13
2.58587e-13
2.0376e-13
1.60207e-13
1.25688e-13
9.8391e-14
7.68542e-14
5.99004e-14
4.65846e-14
3.61496e-14
2.79908e-14
2.1626e-14
1.6672e-14
1.28248e-14
9.84374e-15
7.53912e-15
5.76144e-15
4.3933e-15
3.34272e-15
2.53781e-15
1.9225e-15
1.4532e-15
1.09606e-15
8.24878e-16
6.19436e-16
4.64144e-16
3.47023e-16
2.58888e-16
1.92715e-16
1.43143e-16
1.06089e-16
7.84556e-17
5.78929e-17
4.26261e-17
3.13166e-17
2.29575e-17
1.67927e-17
1.22566e-17
8.92615e-18
6.48648e-18
4.7033e-18
3.40287e-18
2.45662e-18
1.76961e-18
1.27194e-18
9.12233e-19
6.52819e-19
4.66153e-19
3.32134e-19
2.36128e-19
1.67505e-19
1.18566e-19
8.37411e-20
5.90156e-20
4.14995e-20
2.91184e-20
2.03864e-20
1.42417e-20
9.92734e-21
6.90481e-21
4.79202e-21
3.31844e-21
2.29296e-21
1.58092e-21
1.0876e-21
7.46581e-22
5.11367e-22
3.49492e-22
2.38336e-22
1.62177e-22
1.10112e-22
7.45982e-23
5.04271e-23
3.40123e-23
2.28892e-23
1.53676e-23
1.02916e-23
6.87141e-24
4.56893e-24
3.01734e-24
1.96634e-24
1.24405e-24
7.30413e-25
3.38405e-25
0
0
4.07247e-10
8.25013e-10
1.25622e-09
1.70408e-09
2.17221e-09
2.66464e-09
3.18586e-09
3.74085e-09
4.33496e-09
4.97394e-09
5.66378e-09
6.4107e-09
7.22101e-09
8.10103e-09
9.05704e-09
1.00952e-08
1.12214e-08
1.24415e-08
1.37608e-08
1.51846e-08
1.67176e-08
1.83641e-08
2.01281e-08
2.20129e-08
2.40214e-08
2.61558e-08
2.84177e-08
3.08076e-08
3.33257e-08
3.59709e-08
3.87413e-08
4.1634e-08
4.4645e-08
4.77694e-08
5.10009e-08
5.43321e-08
5.77547e-08
6.12589e-08
6.48339e-08
6.84678e-08
7.21477e-08
7.58594e-08
7.9588e-08
8.33177e-08
8.70319e-08
9.07132e-08
9.4344e-08
9.7906e-08
1.01381e-07
1.0475e-07
1.07995e-07
1.11097e-07
1.14039e-07
1.16804e-07
1.19375e-07
1.21736e-07
1.23872e-07
1.25772e-07
1.27422e-07
1.28811e-07
1.29932e-07
1.30777e-07
1.3134e-07
1.31617e-07
1.31607e-07
1.31311e-07
1.30729e-07
1.29865e-07
1.28726e-07
1.27318e-07
1.25651e-07
1.23735e-07
1.21583e-07
1.19207e-07
1.16623e-07
1.13846e-07
1.10892e-07
1.07779e-07
1.04526e-07
1.01149e-07
9.76675e-08
9.41002e-08
9.04654e-08
8.67812e-08
8.30654e-08
7.93352e-08
7.56072e-08
7.18971e-08
6.82199e-08
6.45895e-08
6.10189e-08
5.75199e-08
5.41031e-08
5.07783e-08
4.75538e-08
4.44369e-08
4.14337e-08
3.85491e-08
3.57871e-08
3.31505e-08
3.06411e-08
2.82598e-08
2.60068e-08
2.38811e-08
2.18813e-08
2.00052e-08
1.82501e-08
1.66126e-08
1.5089e-08
1.36753e-08
1.23669e-08
1.11593e-08
1.00477e-08
9.02704e-09
8.09236e-09
7.23863e-09
6.46083e-09
5.75402e-09
5.11335e-09
4.5341e-09
4.01169e-09
3.54172e-09
3.11998e-09
2.74247e-09
2.40537e-09
2.1051e-09
1.83829e-09
1.60179e-09
1.39268e-09
1.20822e-09
1.0459e-09
9.03411e-10
7.78632e-10
6.69623e-10
5.74617e-10
4.92014e-10
4.20366e-10
3.58367e-10
3.04846e-10
2.58751e-10
2.19147e-10
1.85199e-10
1.56168e-10
1.31401e-10
1.1032e-10
9.24185e-11
7.7253e-11
6.44351e-11
5.36266e-11
4.45337e-11
3.69018e-11
3.0511e-11
2.51719e-11
2.07218e-11
1.70211e-11
1.39508e-11
1.14093e-11
9.31048e-12
7.58114e-12
6.15952e-12
4.99355e-12
4.03946e-12
3.26052e-12
2.62603e-12
2.1104e-12
1.6923e-12
1.35408e-12
1.08108e-12
8.61236e-13
6.846e-13
5.43002e-13
4.29751e-13
3.39377e-13
2.67422e-13
2.10263e-13
1.64959e-13
1.29134e-13
1.00869e-13
7.8618e-14
6.11416e-14
4.74462e-14
3.67381e-14
2.83845e-14
2.18824e-14
1.68329e-14
1.29203e-14
9.89545e-15
7.56221e-15
5.76649e-15
4.38757e-15
3.33109e-15
2.52347e-15
1.90747e-15
1.4387e-15
1.08275e-15
8.1309e-16
6.09253e-16
4.55519e-16
3.39832e-16
2.52971e-16
1.87901e-16
1.39262e-16
1.02989e-16
7.59965e-17
5.59561e-17
4.11103e-17
3.01371e-17
2.20447e-17
1.60899e-17
1.1718e-17
8.51532e-18
6.17445e-18
4.4673e-18
3.22508e-18
2.32319e-18
1.66985e-18
1.19762e-18
8.57057e-19
6.11997e-19
4.36051e-19
3.10009e-19
2.19918e-19
1.55666e-19
1.09946e-19
7.74835e-20
5.44866e-20
3.82312e-20
2.67667e-20
1.86991e-20
1.30345e-20
9.06604e-21
6.29199e-21
4.3572e-21
3.01075e-21
2.07582e-21
1.42809e-21
9.80317e-22
6.7147e-22
4.58918e-22
3.12961e-22
2.12958e-22
1.44592e-22
9.79586e-23
6.6219e-23
4.46642e-23
3.00578e-23
2.01808e-23
1.3515e-23
9.02372e-24
6.0001e-24
3.96253e-24
2.58233e-24
1.63377e-24
9.59237e-25
4.44423e-25
0
0
5.31189e-10
1.0761e-09
1.63854e-09
2.22271e-09
2.83331e-09
3.47561e-09
4.15548e-09
4.87938e-09
5.65431e-09
6.48776e-09
7.38756e-09
8.36181e-09
9.41872e-09
1.05666e-08
1.18135e-08
1.31676e-08
1.46366e-08
1.62279e-08
1.79488e-08
1.98058e-08
2.18053e-08
2.39528e-08
2.62536e-08
2.87119e-08
3.13316e-08
3.41155e-08
3.70656e-08
4.01828e-08
4.3467e-08
4.69171e-08
5.05305e-08
5.43034e-08
5.82306e-08
6.23056e-08
6.65204e-08
7.08652e-08
7.53291e-08
7.98995e-08
8.45623e-08
8.93019e-08
9.41014e-08
9.89424e-08
1.03806e-07
1.0867e-07
1.13514e-07
1.18316e-07
1.23051e-07
1.27697e-07
1.32229e-07
1.36623e-07
1.40855e-07
1.44901e-07
1.48739e-07
1.52345e-07
1.55697e-07
1.58777e-07
1.61564e-07
1.64041e-07
1.66193e-07
1.68005e-07
1.69467e-07
1.70569e-07
1.71303e-07
1.71665e-07
1.71652e-07
1.71265e-07
1.70506e-07
1.6938e-07
1.67894e-07
1.66058e-07
1.63884e-07
1.61386e-07
1.58578e-07
1.5548e-07
1.52109e-07
1.48487e-07
1.44635e-07
1.40575e-07
1.36332e-07
1.31927e-07
1.27387e-07
1.22734e-07
1.17994e-07
1.13188e-07
1.08342e-07
1.03477e-07
9.86146e-08
9.37757e-08
8.89797e-08
8.42447e-08
7.95876e-08
7.50239e-08
7.05675e-08
6.62311e-08
6.20254e-08
5.79601e-08
5.4043e-08
5.02807e-08
4.66782e-08
4.32393e-08
3.99663e-08
3.68604e-08
3.39217e-08
3.11492e-08
2.85409e-08
2.60939e-08
2.38046e-08
2.16688e-08
1.96816e-08
1.78376e-08
1.6131e-08
1.4556e-08
1.3106e-08
1.17747e-08
1.05556e-08
9.442e-09
8.42748e-09
7.50554e-09
6.66988e-09
5.91431e-09
5.23289e-09
4.61988e-09
4.06977e-09
3.57734e-09
3.13763e-09
2.74596e-09
2.39794e-09
2.08945e-09
1.81668e-09
1.57606e-09
1.36433e-09
1.17847e-09
1.0157e-09
8.73507e-10
7.49578e-10
6.41827e-10
5.48365e-10
4.6749e-10
3.97672e-10
3.37543e-10
2.8588e-10
2.41596e-10
2.03726e-10
1.71417e-10
1.43916e-10
1.20564e-10
1.00781e-10
8.40595e-11
6.99595e-11
5.80975e-11
4.81413e-11
3.98043e-11
3.28391e-11
2.70336e-11
2.22058e-11
1.82004e-11
1.48848e-11
1.21467e-11
9.89062e-12
8.03597e-12
6.51484e-12
5.27011e-12
4.25388e-12
3.42611e-12
2.75339e-12
2.20793e-12
1.76666e-12
1.41049e-12
1.12366e-12
8.9321e-13
7.0847e-13
5.60711e-13
4.42799e-13
3.48919e-13
2.74342e-13
2.15234e-13
1.68492e-13
1.31612e-13
1.0258e-13
7.97778e-14
6.19084e-14
4.79366e-14
3.70369e-14
2.8553e-14
2.19643e-14
1.68591e-14
1.29122e-14
9.86774e-15
7.5246e-15
5.72531e-15
4.34674e-15
3.2929e-15
2.4891e-15
1.8774e-15
1.41293e-15
1.06104e-15
7.95052e-16
5.94439e-16
4.43474e-16
3.30126e-16
2.4521e-16
1.81739e-16
1.34402e-16
9.91779e-17
7.30251e-17
5.36511e-17
3.93309e-17
2.87699e-17
2.09987e-17
1.52931e-17
1.11134e-17
8.05838e-18
5.83039e-18
4.20917e-18
3.03211e-18
2.17942e-18
1.5631e-18
1.11862e-18
7.98776e-19
5.69137e-19
4.0463e-19
2.87043e-19
2.03182e-19
1.43507e-19
1.01137e-19
7.11201e-20
4.99028e-20
3.49386e-20
2.44082e-20
1.70143e-20
1.18342e-20
8.21325e-21
5.68772e-21
3.93016e-21
2.70975e-21
1.86422e-21
1.27972e-21
8.76553e-22
5.99088e-22
4.08556e-22
2.78009e-22
1.88762e-22
1.27884e-22
8.6449e-23
5.83097e-23
3.92412e-23
2.63468e-23
1.76446e-23
1.17811e-23
7.83361e-24
5.17345e-24
3.3715e-24
2.13308e-24
1.2524e-24
5.80252e-25
0
0
6.89908e-10
1.39764e-09
2.12814e-09
2.88686e-09
3.67992e-09
4.51415e-09
5.39718e-09
6.33739e-09
7.34389e-09
8.42639e-09
9.59506e-09
1.08604e-08
1.22331e-08
1.3724e-08
1.53435e-08
1.71021e-08
1.901e-08
2.10768e-08
2.33118e-08
2.57237e-08
2.83205e-08
3.11096e-08
3.40977e-08
3.72906e-08
4.06929e-08
4.43085e-08
4.81399e-08
5.21883e-08
5.64537e-08
6.09344e-08
6.56272e-08
7.05272e-08
7.56277e-08
8.092e-08
8.63938e-08
9.20366e-08
9.7834e-08
1.0377e-07
1.09825e-07
1.15981e-07
1.22214e-07
1.28501e-07
1.34817e-07
1.41134e-07
1.47426e-07
1.53661e-07
1.59811e-07
1.65845e-07
1.71731e-07
1.77437e-07
1.82934e-07
1.88189e-07
1.93172e-07
1.97855e-07
2.0221e-07
2.06209e-07
2.09828e-07
2.13046e-07
2.1584e-07
2.18194e-07
2.20093e-07
2.21524e-07
2.22477e-07
2.22947e-07
2.22931e-07
2.22428e-07
2.21442e-07
2.1998e-07
2.1805e-07
2.15666e-07
2.12843e-07
2.09598e-07
2.05952e-07
2.01928e-07
1.97551e-07
1.92847e-07
1.87844e-07
1.82572e-07
1.7706e-07
1.71341e-07
1.65444e-07
1.59401e-07
1.53245e-07
1.47004e-07
1.4071e-07
1.34392e-07
1.28077e-07
1.21792e-07
1.15564e-07
1.09414e-07
1.03366e-07
9.7439e-08
9.16514e-08
8.60194e-08
8.05574e-08
7.52776e-08
7.01903e-08
6.5304e-08
6.06253e-08
5.61589e-08
5.19081e-08
4.78743e-08
4.40577e-08
4.04568e-08
3.70692e-08
3.38911e-08
3.09178e-08
2.81439e-08
2.55629e-08
2.31679e-08
2.09515e-08
1.89058e-08
1.70226e-08
1.52935e-08
1.37101e-08
1.22638e-08
1.09461e-08
9.74865e-09
8.66327e-09
7.68192e-09
6.79687e-09
6.00066e-09
5.28616e-09
4.64657e-09
4.07545e-09
3.56673e-09
3.11469e-09
2.71401e-09
2.3597e-09
2.04718e-09
1.77216e-09
1.53075e-09
1.31933e-09
1.13463e-09
9.73661e-10
8.33701e-10
7.12302e-10
6.07252e-10
5.16564e-10
4.3846e-10
3.71353e-10
3.1383e-10
2.64638e-10
2.2267e-10
1.86948e-10
1.56614e-10
1.30916e-10
1.09195e-10
9.08796e-11
7.54708e-11
6.25378e-11
5.17078e-11
4.266e-11
3.51184e-11
2.8847e-11
2.36438e-11
1.93367e-11
1.57797e-11
1.28489e-11
1.04396e-11
8.46354e-12
6.84652e-12
5.52635e-12
4.451e-12
3.57706e-12