# vtk DataFile Version 3.0
2D field
ASCII
DATASET STRUCTURED_POINTS
DIMENSIONS 257 257 1
ORIGIN 0 0 0
SPACING 0.00390625 0.00390625 1
POINT_DATA 66049
SCALARS temperature double 1
LOOKUP_TABLE default
0
0
0
0
0
0
0
0
0
0
0
0
0
0
0
0
0
0
0
0
0
0
0
0
0
0
0
0
0
0
0
0
0
0
0
0
0
0
0
0
0
0
0
0
0
0
0
0
0
0
0
0
0
0
0
0
0
0
0
0
0
0
0
0
0
0
0
0
0
0
0
0
0
0
0
0
0
0
0
0
0
0
0
0
0
0
0
0
0
0
0
0
0
0
0
0
0
0
0
0
0
0
0
0
0
0
0
0
0
0
0
0
0
0
0
0
0
0
0
0
0
0
0
0
0
0
0
0
0
0
0
0
0
0
0
0
0
0
0
0
0
0
0
0
0
0
0
0
0
0
0
0
0
0
0
0
0
0
0
0
0
0
0
0
0
0
0
0
0
0
0
0
0
0
0
0
0
0
0
0
0
0
0
0
0
0
0
0
0
0
0
0
0
0
0
0
0
0
0
0
0
0
0
0
0
0
0
0
0
0
0
0
0
0
0
0
0
0
0
0
0
0
0
0
0
0
0
0
0
0
0
0
0
0
0
0
0
0
0
0
0
0
0
0
0
0
0
0
0
0
0
0
0
0
0
0
0
0
1.13096e-09
2.28996e-09
3.48359e-09
4.71865e-09
6.0021e-09
7.34105e-09
8.74276e-09
1.02146e-08
1.17639e-08
1.33982e-08
1.51248e-08
1.69512e-08
1.88846e-08
2.09321e-08
2.31007e-08
2.53969e-08
2.7827e-08
3.03971e-08
3.31124e-08
3.59779e-08
3.89979e-08
4.21759e-08
4.5515e-08
4.90171e-08
5.26834e-08
5.65142e-08
6.05086e-08
6.46649e-08
6.89801e-08
7.34501e-08
7.80696e-08
8.28321e-08
8.77298e-08
9.27536e-08
9.78933e-08
1.03137e-07
1.08473e-07
1.13886e-07
1.19362e-07
1.24884e-07
1.30435e-07
1.35997e-07
1.4155e-07
1.47075e-07
1.52552e-07
1.57958e-07
1.63274e-07
1.68476e-07
1.73544e-07
1.78455e-07
1.83188e-07
1.87721e-07
1.92033e-07
1.96106e-07
1.99918e-07
2.03452e-07
2.06691e-07
2.09618e-07
2.1222e-07
2.14482e-07
2.16393e-07
2.17945e-07
2.19127e-07
2.19936e-07
2.20366e-07
2.20415e-07
2.20083e-07
2.19372e-07
2.18285e-07
2.16827e-07
2.15008e-07
2.12835e-07
2.1032e-07
2.07475e-07
2.04315e-07
2.00855e-07
1.97112e-07
1.93105e-07
1.88852e-07
1.84374e-07
1.79691e-07
1.74824e-07
1.69794e-07
1.64624e-07
1.59336e-07
1.53951e-07
1.48491e-07
1.42977e-07
1.3743e-07
1.31869e-07
1.26315e-07
1.20785e-07
1.15298e-07
1.0987e-07
1.04516e-07
9.92515e-08
9.4089e-08
8.90409e-08
8.41178e-08
7.93296e-08
7.46846e-08
7.019e-08
6.58518e-08
6.16749e-08
5.7663e-08
5.38189e-08
5.01442e-08
4.66396e-08
4.33049e-08
4.01391e-08
3.71404e-08
3.43063e-08
3.16336e-08
2.91188e-08
2.67574e-08
2.45451e-08
2.24767e-08
2.0547e-08
1.87505e-08
1.70815e-08
1.55341e-08
1.41025e-08
1.27806e-08
1.15627e-08
1.04427e-08
9.41481e-09
8.47346e-09
7.61303e-09
6.82814e-09
6.11358e-09
5.46432e-09
4.87556e-09
4.34272e-09
3.86141e-09
3.4275e-09
3.03709e-09
2.68649e-09
2.37225e-09
2.09115e-09
1.84016e-09
1.61649e-09
1.41756e-09
1.24095e-09
1.08447e-09
9.46075e-10
8.23915e-10
7.16287e-10
6.2164e-10
5.38565e-10
4.65784e-10
4.02142e-10
3.46594e-10
2.98202e-10
2.56122e-10
2.19599e-10
1.87958e-10
1.60598e-10
1.36983e-10
1.16638e-10
9.91422e-11
8.41252e-11
7.12591e-11
6.02562e-11
5.0864e-11
4.28614e-11
3.60553e-11
3.02774e-11
2.53814e-11
2.12402e-11
1.77439e-11
1.47974e-11
1.23188e-11
1.02377e-11
8.49334e-12
7.03401e-12
5.81532e-12
4.79945e-12
3.95418e-12
3.25212e-12
2.67008e-12
2.18841e-12
1.79052e-12
1.46243e-12
1.19239e-12
9.7053e-13
7.88579e-13
6.39628e-13
5.17912e-13
4.18631e-13
3.37794e-13
2.72094e-13
2.18793e-13
1.75627e-13
1.40734e-13
1.12577e-13
8.98973e-14
7.16622e-14
5.70268e-14
4.53017e-14
3.59249e-14
2.84395e-14
2.24747e-14
1.77301e-14
1.39629e-14
1.0977e-14
8.6147e-15
6.74901e-15
5.2782e-15
4.12076e-15
3.21154e-15
2.4986e-15
1.94054e-15
1.50451e-15
1.16443e-15
8.99656e-16
6.9388e-16
5.34241e-16
4.10615e-16
3.15049e-16
2.41305e-16
1.84501e-16
1.40824e-16
1.073e-16
8.16144e-17
6.19696e-17
4.69716e-17
3.55415e-17
2.68461e-17
2.02429e-17
1.52373e-17
1.14495e-17
8.58834e-18
6.43098e-18
4.80716e-18
3.58711e-18
2.67205e-18
1.98696e-18
1.47495e-18
1.09297e-18
8.08498e-19
5.97023e-19
4.40088e-19
3.2383e-19
2.37852e-19
1.74374e-19
1.27579e-19
9.31301e-20
6.77925e-20
4.91588e-20
3.54356e-20
2.52844e-20
1.77006e-20
1.1921e-20
7.35282e-21
3.51677e-21
0
0
2.31171e-09
4.68074e-09
7.12056e-09
9.64505e-09
1.22684e-08
1.50053e-08
1.78704e-08
2.08788e-08
2.40457e-08
2.73861e-08
3.09154e-08
3.46486e-08
3.86005e-08
4.27856e-08
4.72182e-08
5.19116e-08
5.68789e-08
6.2132e-08
6.76821e-08
7.35392e-08
7.9712e-08
8.6208e-08
9.3033e-08
1.00191e-07
1.07685e-07
1.15515e-07
1.2368e-07
1.32175e-07
1.40995e-07
1.50132e-07
1.59574e-07
1.69309e-07
1.79319e-07
1.89588e-07
2.00093e-07
2.10812e-07
2.21718e-07
2.32783e-07
2.43975e-07
2.55262e-07
2.66608e-07
2.77976e-07
2.89327e-07
3.0062e-07
3.11814e-07
3.22865e-07
3.33729e-07
3.44363e-07
3.54721e-07
3.64759e-07
3.74432e-07
3.83698e-07
3.92513e-07
4.00836e-07
4.08629e-07
4.15852e-07
4.22472e-07
4.28456e-07
4.33773e-07
4.38397e-07
4.42304e-07
4.45475e-07
4.47893e-07
4.49545e-07
4.50424e-07
4.50524e-07
4.49846e-07
4.48392e-07
4.4617e-07
4.43192e-07
4.39472e-07
4.35031e-07
4.2989e-07
4.24075e-07
4.17616e-07
4.10545e-07
4.02895e-07
3.94705e-07
3.86012e-07
3.76859e-07
3.67286e-07
3.57338e-07
3.47058e-07
3.36491e-07
3.25682e-07
3.14675e-07
3.03515e-07
2.92244e-07
2.80906e-07
2.6954e-07
2.58187e-07
2.46885e-07
2.35669e-07
2.24574e-07
2.13632e-07
2.02871e-07
1.92319e-07
1.82e-07
1.71938e-07
1.62151e-07
1.52656e-07
1.43469e-07
1.34602e-07
1.26065e-07
1.17864e-07
1.10007e-07
1.02496e-07
9.53326e-08
8.85165e-08
8.20456e-08
7.59162e-08
7.01232e-08
6.46603e-08
5.95199e-08
5.46933e-08
5.01712e-08
4.59434e-08
4.19991e-08
3.8327e-08
3.49155e-08
3.17526e-08
2.88263e-08
2.61244e-08
2.36348e-08
2.13454e-08
1.92445e-08
1.73203e-08
1.55616e-08
1.39572e-08
1.24966e-08
1.11695e-08
9.96606e-09
8.87688e-09
7.89306e-09
7.00613e-09
6.2081e-09
5.49145e-09
4.84913e-09
4.27452e-09
3.76148e-09
3.30429e-09
2.89765e-09
2.53665e-09
2.21678e-09
1.93389e-09
1.68419e-09
1.46418e-09
1.27071e-09
1.1009e-09
9.52129e-10
8.22036e-10
7.08489e-10
6.09569e-10
5.23553e-10
4.48895e-10
3.84217e-10
3.28289e-10
2.80016e-10
2.38427e-10
2.02664e-10
1.71967e-10
1.45667e-10
1.23175e-10
1.03976e-10
8.76171e-11
7.37042e-11
6.18932e-11
5.18848e-11
4.34195e-11
3.62724e-11
3.02492e-11
2.51825e-11
2.09282e-11
1.73624e-11
1.43792e-11
1.18879e-11
9.81128e-12
8.08334e-12
6.64818e-12
5.45835e-12
4.47369e-12
3.66031e-12
2.98962e-12
2.43759e-12
1.98404e-12
1.61209e-12
1.30759e-12
1.05877e-12
8.5581e-13
6.90557e-13
5.56247e-13
4.47283e-13
3.5904e-13
2.87706e-13
2.30145e-13
1.83781e-13
1.46502e-13
1.16583e-13
9.26129e-14
7.34435e-14
5.81408e-14
4.59468e-14
3.62472e-14
2.85456e-14
2.24414e-14
1.76119e-14
1.37977e-14
1.07908e-14
8.42455e-15
6.56575e-15
5.1082e-15
3.96731e-15
3.07588e-15
2.38061e-15
1.8393e-15
1.41861e-15
1.09224e-15
8.39491e-16
6.4411e-16
4.93344e-16
3.77211e-16
2.87914e-16
2.19375e-16
1.66861e-16
1.26698e-16
9.60343e-17
7.26656e-17
5.48878e-17
4.13874e-17
3.11533e-17
2.34091e-17
1.75594e-17
1.31486e-17
9.8286e-18
7.33414e-18
5.46324e-18
4.06252e-18
3.01568e-18
2.23469e-18
1.65307e-18
1.22069e-18
8.99817e-19
6.62114e-19
4.86322e-19
3.56533e-19
2.60856e-19
1.9042e-19
1.38613e-19
1.00514e-19
7.24547e-20
5.16989e-20
3.61923e-20
2.43749e-20
1.50344e-20
7.19078e-21
0
0
3.59387e-09
7.27685e-09
1.10699e-08
1.49945e-08
1.9073e-08
2.33278e-08
2.7782e-08
3.24589e-08
3.73822e-08
4.25754e-08
4.80621e-08
5.38657e-08
6.00094e-08
6.65157e-08
7.34066e-08
8.07031e-08
8.84252e-08
9.65917e-08
1.0522e-07
1.14325e-07
1.23922e-07
1.3402e-07
1.4463e-07
1.55758e-07
1.67408e-07
1.79581e-07
1.92273e-07
2.0548e-07
2.19192e-07
2.33396e-07
2.48074e-07
2.63207e-07
2.78769e-07
2.94733e-07
3.11064e-07
3.27727e-07
3.44682e-07
3.61882e-07
3.79281e-07
3.96828e-07
4.14466e-07
4.32138e-07
4.49784e-07
4.6734e-07
4.84741e-07
5.01921e-07
5.18811e-07
5.35341e-07
5.51444e-07
5.67048e-07
5.82086e-07
5.9649e-07
6.10193e-07
6.23133e-07
6.35247e-07
6.46476e-07
6.56768e-07
6.66069e-07
6.74335e-07
6.81523e-07
6.87597e-07
6.92526e-07
6.96285e-07
6.98855e-07
7.00221e-07
7.00377e-07
6.99322e-07
6.97062e-07
6.93608e-07
6.88978e-07
6.83197e-07
6.76292e-07
6.683e-07
6.59261e-07
6.49221e-07
6.38228e-07
6.26336e-07
6.13603e-07
6.00091e-07
5.85861e-07
5.7098e-07
5.55515e-07
5.39534e-07
5.23108e-07
5.06304e-07
4.89194e-07
4.71844e-07
4.54323e-07
4.36696e-07
4.19028e-07
4.01379e-07
3.83809e-07
3.66373e-07
3.49125e-07
3.32114e-07
3.15385e-07
2.98981e-07
2.82941e-07
2.67298e-07
2.52083e-07
2.37323e-07
2.23041e-07
2.09256e-07
1.95984e-07
1.83236e-07
1.7102e-07
1.59344e-07
1.48207e-07
1.37611e-07
1.27551e-07
1.18023e-07
1.09017e-07
1.00524e-07
9.25326e-08
8.50292e-08
7.7999e-08
7.14264e-08
6.52944e-08
5.95857e-08
5.4282e-08
4.93649e-08
4.48155e-08
4.0615e-08
3.67445e-08
3.31854e-08
2.99192e-08
2.69277e-08
2.41935e-08
2.16993e-08
1.94285e-08
1.73653e-08
1.54943e-08
1.3801e-08
1.22714e-08
1.08925e-08
9.65186e-09
8.5377e-09
7.53907e-09
6.64573e-09
5.84811e-09
5.13731e-09
4.5051e-09
3.94385e-09
3.44654e-09
3.00673e-09
2.6185e-09
2.27646e-09
1.97567e-09
1.71165e-09
1.48035e-09
1.27809e-09
1.10155e-09
9.47752e-10
8.14017e-10
6.97942e-10
5.97382e-10
5.10426e-10
4.35372e-10
3.70711e-10
3.15107e-10
2.67379e-10
2.26487e-10
1.91517e-10
1.61666e-10
1.36231e-10
1.14599e-10
9.62351e-11
8.06738e-11
6.75116e-11
5.63989e-11
4.70339e-11
3.91559e-11
3.2541e-11
2.69967e-11
2.23582e-11
1.84846e-11
1.52557e-11
1.25689e-11
1.03374e-11
8.48734e-12
6.9563e-12
5.69156e-12
4.6487e-12
3.79033e-12
3.0851e-12
2.50673e-12
2.03326e-12
1.64636e-12
1.33077e-12
1.07381e-12
8.64961e-13
6.95525e-13
5.5831e-13
4.47387e-13
3.5788e-13
2.85784e-13
2.27816e-13
1.81291e-13
1.44017e-13
1.14209e-13
9.04125e-14
7.14503e-14
5.63671e-14
4.43907e-14
3.48983e-14
2.73881e-14
2.14569e-14
1.67809e-14
1.31012e-14
1.02106e-14
7.94392e-15
6.16972e-15
4.78345e-15
3.70222e-15
2.86041e-15
2.20617e-15
1.69862e-15
1.30556e-15
1.00171e-15
7.67248e-16
5.8664e-16
4.47768e-16
3.41176e-16
2.59507e-16
1.97045e-16
1.49357e-16
1.13013e-16
8.5365e-17
6.43685e-17
4.8452e-17
3.64078e-17
2.731e-17
2.045e-17
1.52865e-17
1.14069e-17
8.49714e-18
6.31859e-18
4.69042e-18
3.47573e-18
2.57112e-18
1.89862e-18
1.39956e-18
1.02984e-18
7.56425e-19
5.54554e-19
4.0574e-19
2.96184e-19
2.15604e-19
1.56344e-19
1.127e-19
8.04154e-20
5.62959e-20
3.79144e-20
2.33856e-20
1.11851e-20
0
0
5.03276e-09
1.01903e-08
1.5502e-08
2.09979e-08
2.67092e-08
3.26675e-08
3.8905e-08
4.54544e-08
5.23487e-08
5.9621e-08
6.73043e-08
7.54314e-08
8.40347e-08
9.31458e-08
1.02795e-07
1.13013e-07
1.23827e-07
1.35262e-07
1.47345e-07
1.60095e-07
1.73533e-07
1.87674e-07
2.02532e-07
2.18115e-07
2.34428e-07
2.51474e-07
2.69247e-07
2.87741e-07
3.06941e-07
3.26831e-07
3.47385e-07
3.68575e-07
3.90368e-07
4.12721e-07
4.3559e-07
4.58923e-07
4.82664e-07
5.0675e-07
5.31114e-07
5.55684e-07
5.80382e-07
6.05128e-07
6.29838e-07
6.54421e-07
6.78788e-07
7.02844e-07
7.26495e-07
7.49642e-07
7.7219e-07
7.94041e-07
8.15098e-07
8.35268e-07
8.54457e-07
8.72575e-07
8.89538e-07
9.05263e-07
9.19674e-07
9.32699e-07
9.44273e-07
9.54339e-07
9.62845e-07
9.69747e-07
9.75011e-07
9.78608e-07
9.80522e-07
9.80741e-07
9.79264e-07
9.76099e-07
9.71263e-07
9.64781e-07
9.56685e-07
9.47017e-07
9.35826e-07
9.2317e-07
9.0911e-07
8.93717e-07
8.77065e-07
8.59237e-07
8.40315e-07
8.2039e-07
7.99552e-07
7.77897e-07
7.5552e-07
7.32518e-07
7.08989e-07
6.85029e-07
6.60735e-07
6.362e-07
6.11518e-07
5.86777e-07
5.62063e-07
5.3746e-07
5.13045e-07
4.88893e-07
4.65072e-07
4.41647e-07
4.18676e-07
3.96215e-07
3.74309e-07
3.53004e-07
3.32336e-07
3.12336e-07
2.93033e-07
2.74447e-07
2.56596e-07
2.39491e-07
2.2314e-07
2.07545e-07
1.92707e-07
1.7862e-07
1.65276e-07
1.52665e-07
1.40772e-07
1.29582e-07
1.19074e-07
1.09229e-07
1.00025e-07
9.14384e-08
8.34441e-08
7.6017e-08
6.91312e-08
6.27603e-08
5.6878e-08
5.14579e-08
4.64737e-08
4.18997e-08
3.77105e-08
3.38815e-08
3.03886e-08
2.72086e-08
2.43192e-08
2.1699e-08
1.93277e-08
1.71857e-08
1.52547e-08
1.35172e-08
1.19568e-08
1.05583e-08
9.30725e-09
8.19022e-09
7.19478e-09
6.30939e-09
5.52338e-09
4.82692e-09
4.21097e-09
3.66727e-09
3.18824e-09
2.76698e-09
2.39722e-09
2.07329e-09
1.79002e-09
1.54277e-09
1.32738e-09
1.14008e-09
9.77514e-10
8.36677e-10
7.14892e-10
6.09775e-10
5.19214e-10
4.41337e-10
3.74492e-10
3.1722e-10
2.68242e-10
2.26433e-10
1.90809e-10
1.60511e-10
1.34791e-10
1.12995e-10
9.45601e-11
7.89956e-11
6.58786e-11
5.48445e-11
4.55794e-11
3.78138e-11
3.13169e-11
2.58914e-11
2.13687e-11
1.76054e-11
1.44798e-11
1.18884e-11
9.74391e-12
7.97239e-12
6.51164e-12
5.30932e-12
4.32149e-12
3.51135e-12
2.84814e-12
2.30619e-12
1.86413e-12
1.50419e-12
1.21164e-12
9.74301e-13
7.82092e-13
6.26713e-13
5.01332e-13
4.00339e-13
3.19137e-13
2.53964e-13
2.0175e-13
1.59992e-13
1.26658e-13
1.00094e-13
7.89647e-14
6.21874e-14
4.88897e-14
3.83688e-14
3.00597e-14
2.35091e-14
1.83541e-14
1.43046e-14
1.11292e-14
8.64365e-15
6.70155e-15
5.1868e-15
4.00745e-15
3.09088e-15
2.37981e-15
1.82914e-15
1.40345e-15
1.07495e-15
8.21919e-16
6.27355e-16
4.78016e-16
3.63593e-16
2.7608e-16
2.09266e-16
1.58345e-16
1.19607e-16
9.01892e-17
6.78885e-17
5.10131e-17
3.82659e-17
2.86541e-17
2.14193e-17
1.59834e-17
1.19063e-17
8.85374e-18
6.57236e-18
4.87033e-18
3.60278e-18
2.66047e-18
1.96116e-18
1.4431e-18
1.05997e-18
7.77099e-19
5.68569e-19
4.1505e-19
3.02134e-19
2.19092e-19
1.57932e-19
1.12691e-19
7.88917e-20
5.31326e-20
3.27723e-20
1.56747e-20
0
0
6.68936e-09
1.35446e-08
2.06046e-08
2.79096e-08
3.55008e-08
4.34203e-08
5.17109e-08
6.04161e-08
6.95797e-08
7.92456e-08
8.94578e-08
1.0026e-07
1.11695e-07
1.23805e-07
1.3663e-07
1.5021e-07
1.64583e-07
1.79783e-07
1.95841e-07
2.12788e-07
2.30648e-07
2.49444e-07
2.69191e-07
2.89902e-07
3.11584e-07
3.34239e-07
3.57862e-07
3.82441e-07
4.0796e-07
4.34395e-07
4.61713e-07
4.89877e-07
5.18841e-07
5.4855e-07
5.78945e-07
6.09956e-07
6.41509e-07
6.73521e-07
7.05903e-07
7.38557e-07
7.71383e-07
8.04273e-07
8.37113e-07
8.69786e-07
9.02171e-07
9.34144e-07
9.65576e-07
9.96341e-07
1.02631e-06
1.05535e-06
1.08334e-06
1.11014e-06
1.13565e-06
1.15973e-06
1.18227e-06
1.20317e-06
1.22232e-06
1.23963e-06
1.25502e-06
1.2684e-06
1.2797e-06
1.28887e-06
1.29587e-06
1.30065e-06
1.3032e-06
1.30349e-06
1.30153e-06
1.29732e-06
1.29089e-06
1.28228e-06
1.27152e-06
1.25867e-06
1.2438e-06
1.22698e-06
1.20829e-06
1.18783e-06
1.1657e-06
1.14201e-06
1.11686e-06
1.09038e-06
1.06268e-06
1.0339e-06
1.00416e-06
9.73592e-07
9.4232e-07
9.10476e-07
8.78188e-07
8.4558e-07
8.12776e-07
7.79893e-07
7.47048e-07
7.14348e-07
6.81899e-07
6.49799e-07
6.18139e-07
5.87005e-07
5.56475e-07
5.26622e-07
4.97508e-07
4.69191e-07
4.41721e-07
4.1514e-07
3.89484e-07
3.64782e-07
3.41055e-07
3.18321e-07
2.96588e-07
2.75861e-07
2.56139e-07
2.37416e-07
2.19681e-07
2.02919e-07
1.87112e-07
1.72238e-07
1.58272e-07
1.45187e-07
1.32953e-07
1.2154e-07
1.10914e-07
1.01042e-07
9.18898e-08
8.34219e-08
7.56033e-08
6.8399e-08
6.17741e-08
5.56944e-08
5.01262e-08
4.50366e-08
4.03938e-08
3.6167e-08
3.23264e-08
2.88437e-08
2.56916e-08
2.28444e-08
2.02776e-08
1.79681e-08
1.58941e-08
1.40351e-08
1.23721e-08
1.08873e-08
9.56407e-09
8.38715e-09
7.34232e-09
6.41653e-09
5.59777e-09
4.87503e-09
4.23825e-09
3.67827e-09
3.18676e-09
2.75614e-09
2.37959e-09
2.05092e-09
1.76459e-09
1.5156e-09
1.2995e-09
1.11228e-09
9.5038e-10
8.10641e-10
6.90252e-10
5.86724e-10
4.9786e-10
4.21724e-10
3.56612e-10
3.01031e-10
2.53672e-10
2.13394e-10
1.792e-10
1.50225e-10
1.25716e-10
1.05024e-10
8.75858e-11
7.29163e-11
6.05986e-11
5.02744e-11
4.16369e-11
3.44236e-11
2.84107e-11
2.34074e-11
1.92518e-11
1.58065e-11
1.29553e-11
1.06e-11
8.65786e-12
7.0593e-12
5.74592e-12
4.66878e-12
3.78698e-12
3.06641e-12
2.47864e-12
2.00006e-12
1.61108e-12
1.2955e-12
1.03994e-12
8.33336e-13
6.66623e-13
5.32336e-13
4.24363e-13
3.37704e-13
2.68274e-13
2.1275e-13
1.68424e-13
1.33102e-13
1.05006e-13
8.26961e-14
6.50135e-14
5.10231e-14
3.99739e-14
3.12631e-14
2.4408e-14
1.9023e-14
1.48003e-14
1.14949e-14
8.91226e-15
6.89787e-15
5.32951e-15
4.1106e-15
3.16496e-15
2.43263e-15
1.8665e-15
1.42964e-15
1.09312e-15
8.34367e-16
6.35755e-16
4.83578e-16
3.67188e-16
2.78327e-16
2.10604e-16
1.59083e-16
1.19957e-16
9.02962e-17
6.78514e-17
5.08971e-17
3.81129e-17
2.84901e-17
2.12599e-17
1.5837e-17
1.17768e-17
8.74229e-18
6.47838e-18
4.79237e-18
3.53894e-18
2.60876e-18
1.91965e-18
1.41001e-18
1.03373e-18
7.56344e-19
5.52129e-19
4.01923e-19
2.91457e-19
2.10099e-19
1.49916e-19
1.04952e-19
7.06843e-20
4.35985e-20
2.08528e-20
0
0
8.63248e-09
1.7479e-08
2.65898e-08
3.60168e-08
4.5813e-08
5.60329e-08
6.67317e-08
7.79654e-08
8.97906e-08
1.02264e-07
1.15442e-07
1.29382e-07
1.44138e-07
1.59765e-07
1.76316e-07
1.9384e-07
2.12387e-07
2.32001e-07
2.52723e-07
2.74592e-07
2.97639e-07
3.21893e-07
3.47375e-07
3.741e-07
4.02079e-07
4.31313e-07
4.61796e-07
4.93513e-07
5.26443e-07
5.60554e-07
5.95805e-07
6.32147e-07
6.69521e-07
7.07857e-07
7.47078e-07
7.87095e-07
8.2781e-07
8.69117e-07
9.10901e-07
9.53038e-07
9.95396e-07
1.03784e-06
1.08021e-06
1.12237e-06
1.16416e-06
1.20542e-06
1.24598e-06
1.28567e-06
1.32434e-06
1.36182e-06
1.39793e-06
1.43252e-06
1.46543e-06
1.4965e-06
1.52559e-06
1.55256e-06
1.57727e-06
1.59961e-06
1.61946e-06
1.63672e-06
1.65131e-06
1.66315e-06
1.67218e-06
1.67835e-06
1.68163e-06
1.68201e-06
1.67948e-06
1.67405e-06
1.66576e-06
1.65464e-06
1.64076e-06
1.62418e-06
1.60499e-06
1.58329e-06
1.55918e-06
1.53278e-06
1.50422e-06
1.47365e-06
1.4412e-06
1.40703e-06
1.37129e-06
1.33416e-06
1.29578e-06
1.25633e-06
1.21598e-06
1.17489e-06
1.13323e-06
1.09115e-06
1.04882e-06
1.00639e-06
9.6401e-07
9.21815e-07
8.79944e-07
8.38522e-07
7.97669e-07
7.57494e-07
7.18099e-07
6.79576e-07
6.42008e-07
6.05468e-07
5.7002e-07
5.3572e-07
5.02613e-07
4.70737e-07
4.40121e-07
4.10784e-07
3.82739e-07
3.55993e-07
3.30543e-07
3.06382e-07
2.83496e-07
2.61865e-07
2.41467e-07
2.22273e-07
2.0425e-07
1.87365e-07
1.71578e-07
1.56849e-07
1.43137e-07
1.30398e-07
1.18587e-07
1.07659e-07
9.75692e-08
8.8272e-08
7.97226e-08
7.18768e-08
6.46909e-08
5.81227e-08
5.21311e-08
4.66763e-08
4.17199e-08
3.72253e-08
3.31574e-08
2.9483e-08
2.61704e-08
2.31898e-08
2.05131e-08
1.8114e-08
1.59678e-08
1.40515e-08
1.23438e-08
1.08248e-08
9.47638e-09
8.28155e-09
7.22484e-09
6.29206e-09
5.47022e-09
4.74749e-09
4.11312e-09
3.55735e-09
3.07134e-09
2.64715e-09
2.27759e-09
1.95623e-09
1.67731e-09
1.43566e-09
1.2267e-09
1.04634e-09
8.90952e-10
7.57327e-10
6.42627e-10
5.44355e-10
4.60313e-10
3.88571e-10
3.27443e-10
2.75453e-10
2.31316e-10
1.93915e-10
1.6228e-10
1.35571e-10
1.13061e-10
9.41253e-11
7.82252e-11
6.48985e-11
5.37488e-11
4.44376e-11
3.66757e-11
3.02171e-11
2.48527e-11
2.04053e-11
1.67246e-11
1.36841e-11
1.1177e-11
9.11338e-12
7.41789e-12
6.02736e-12
4.88901e-12
3.95877e-12
3.19998e-12
2.58214e-12
2.07997e-12
1.67256e-12
1.34262e-12
1.0759e-12
8.60666e-13
6.87296e-13
5.47897e-13
4.36014e-13
3.46376e-13
2.74689e-13
2.1746e-13
1.71856e-13
1.3558e-13
1.06775e-13
8.39447e-14
6.58811e-14
5.16148e-14
4.03676e-14
3.15164e-14
2.45633e-14
1.91109e-14
1.4843e-14
1.15082e-14
8.90717e-15
6.88202e-15
5.30808e-15
4.087e-15
3.14135e-15
2.41031e-15
1.84618e-15
1.41163e-15
1.07749e-15
8.21014e-16
6.245e-16
4.74197e-16
3.59443e-16
2.71985e-16
2.0545e-16
1.54921e-16
1.16617e-16
8.76303e-17
6.57344e-17
4.92238e-17
3.67962e-17
2.74583e-17
2.04545e-17
1.52107e-17
1.12915e-17
8.36754e-18
6.18993e-18
4.57103e-18
3.3696e-18
2.47954e-18
1.82128e-18
1.33526e-18
9.76974e-19
7.13196e-19
5.19178e-19
3.76488e-19
2.71397e-19
1.93657e-19
1.35575e-19
9.13095e-20
5.63205e-20
2.69378e-20
0
0
1.09411e-08
2.21534e-08
3.37008e-08
4.56488e-08
5.80649e-08
7.10178e-08
8.45776e-08
9.88154e-08
1.13803e-07
1.29612e-07
1.46314e-07
1.63981e-07
1.82683e-07
2.02489e-07
2.23464e-07
2.45675e-07
2.69181e-07
2.94039e-07
3.20302e-07
3.48017e-07
3.77227e-07
4.07965e-07
4.40259e-07
4.74131e-07
5.0959e-07
5.46639e-07
5.85271e-07
6.25467e-07
6.67201e-07
7.10431e-07
7.55106e-07
8.01164e-07
8.48528e-07
8.97113e-07
9.46818e-07
9.97532e-07
1.04913e-06
1.10148e-06
1.15444e-06
1.20784e-06
1.26152e-06
1.3153e-06
1.369e-06
1.42243e-06
1.47539e-06
1.52768e-06
1.57908e-06
1.62939e-06
1.67839e-06
1.72588e-06
1.77165e-06
1.81549e-06
1.85719e-06
1.89657e-06
1.93344e-06
1.96762e-06
1.99894e-06
2.02725e-06
2.0524e-06
2.07428e-06
2.09277e-06
2.10777e-06
2.11921e-06
2.12703e-06
2.13119e-06
2.13167e-06
2.12847e-06
2.12159e-06
2.11108e-06
2.09699e-06
2.0794e-06
2.05839e-06
2.03407e-06
2.00657e-06
1.97601e-06
1.94256e-06
1.90637e-06
1.86763e-06
1.82651e-06
1.7832e-06
1.73792e-06
1.69085e-06
1.64222e-06
1.59223e-06
1.54109e-06
1.48902e-06
1.43622e-06
1.38289e-06
1.32925e-06
1.27548e-06
1.22176e-06
1.16829e-06
1.11522e-06
1.06273e-06
1.01095e-06
9.6004e-07
9.10114e-07
8.61292e-07
8.1368e-07
7.67371e-07
7.22447e-07
6.78977e-07
6.37019e-07
5.9662e-07
5.57818e-07
5.20637e-07
4.85094e-07
4.51197e-07
4.18942e-07
3.8832e-07
3.59315e-07
3.31901e-07
3.06048e-07
2.81721e-07
2.5888e-07
2.37478e-07
2.1747e-07
1.98803e-07
1.81423e-07
1.65277e-07
1.50307e-07
1.36457e-07
1.23669e-07
1.11885e-07
1.01049e-07
9.1105e-08
8.19972e-08
7.36722e-08
6.60779e-08
5.9164e-08
5.28818e-08
4.71849e-08
4.20289e-08
3.73716e-08
3.31728e-08
2.93948e-08
2.6002e-08
2.29611e-08
2.02407e-08
1.78117e-08
1.56471e-08
1.37217e-08
1.20125e-08
1.04979e-08
9.15847e-09
7.97608e-09
6.93432e-09
6.01819e-09
5.21406e-09
4.50955e-09
3.89348e-09
3.35575e-09
2.88729e-09
2.47992e-09
2.12634e-09
1.82001e-09
1.55512e-09
1.32648e-09
1.1295e-09
9.60101e-10
8.14696e-10
6.90116e-10
5.83573e-10
4.92625e-10
4.1513e-10
3.4922e-10
2.93265e-10
2.4585e-10
2.05743e-10
1.71881e-10
1.43344e-10
1.19337e-10
9.91791e-11
8.22831e-11
6.81473e-11
5.63421e-11
4.65012e-11
3.83126e-11
3.15113e-11
2.58725e-11
2.12059e-11
1.73509e-11
1.4172e-11
1.15555e-11
9.40576e-12
7.64266e-12
6.19928e-12
5.01978e-12
4.05765e-12
3.27424e-12
2.63751e-12
2.12091e-12
1.70254e-12
1.36432e-12
1.0914e-12
8.71562e-13
6.94796e-13
5.5292e-13
4.39252e-13
3.48346e-13
2.75774e-13
2.17943e-13
1.7194e-13
1.35412e-13
1.06459e-13
8.35517e-14
6.54595e-14
5.11959e-14
3.99709e-14
3.11529e-14
2.4238e-14
1.88253e-14
1.45959e-14
1.12971e-14
8.72868e-15
6.73247e-15
5.18377e-15
3.98439e-15
3.0572e-15
2.34169e-15
1.79053e-15
1.36671e-15
1.0414e-15
7.92146e-16
6.01501e-16
4.55945e-16
3.45011e-16
2.60614e-16
1.9652e-16
1.47932e-16
1.11163e-16
8.33881e-17
6.24441e-17
4.66792e-17
3.48337e-17
2.5949e-17
1.92968e-17
1.43249e-17
1.06156e-17
7.85302e-18
5.79923e-18
4.27503e-18
3.14584e-18
2.31073e-18
1.69412e-18
1.23955e-18
9.0489e-19
6.58732e-19
4.77693e-19
3.44356e-19
2.45719e-19
1.72025e-19
1.15859e-19
7.14634e-20
3.41807e-20
0
0
1.3707e-08
2.77538e-08
4.22203e-08
5.71887e-08
7.27434e-08
8.89706e-08
1.05958e-07
1.23795e-07
1.42571e-07
1.62376e-07
1.833e-07
2.05433e-07
2.28862e-07
2.53673e-07
2.79951e-07
3.07775e-07
3.37221e-07
3.68362e-07
4.01263e-07
4.35983e-07
4.72574e-07
5.1108e-07
5.51536e-07
5.93967e-07
6.38387e-07
6.84799e-07
7.33193e-07
7.83548e-07
8.35827e-07
8.8998e-07
9.45945e-07
1.00364e-06
1.06297e-06
1.12384e-06
1.1861e-06
1.24963e-06
1.31427e-06
1.37984e-06
1.44618e-06
1.51307e-06
1.58031e-06
1.64769e-06
1.71496e-06
1.78189e-06
1.84823e-06
1.91373e-06
1.97812e-06
2.04114e-06
2.10252e-06
2.16201e-06
2.21934e-06
2.27426e-06
2.3265e-06
2.37583e-06
2.42201e-06
2.46482e-06
2.50406e-06
2.53952e-06
2.57103e-06
2.59844e-06
2.6216e-06
2.64039e-06
2.65473e-06
2.66453e-06
2.66974e-06
2.67034e-06
2.66632e-06
2.65771e-06
2.64455e-06
2.6269e-06
2.60487e-06
2.57855e-06
2.54809e-06
2.51363e-06
2.47536e-06
2.43346e-06
2.38813e-06
2.33959e-06
2.28808e-06
2.23384e-06
2.17711e-06
2.11816e-06
2.05724e-06
1.99462e-06
1.93056e-06
1.86533e-06
1.79919e-06
1.73239e-06
1.66519e-06
1.59783e-06
1.53055e-06
1.46356e-06
1.39709e-06
1.33133e-06
1.26647e-06
1.20269e-06
1.14015e-06
1.07899e-06
1.01935e-06
9.61336e-07
9.05059e-07
8.50603e-07
7.98042e-07
7.47434e-07
6.98825e-07
6.52248e-07
6.07722e-07
5.65257e-07
5.24851e-07
4.8649e-07
4.50153e-07
4.1581e-07
3.83423e-07
3.52947e-07
3.24331e-07
2.97521e-07
2.72454e-07
2.49068e-07
2.27296e-07
2.07068e-07
1.88314e-07
1.70962e-07
1.54941e-07
1.40178e-07
1.26603e-07
1.14144e-07
1.02734e-07
9.23038e-08
8.27893e-08
7.41272e-08
6.62565e-08
5.91191e-08
5.26593e-08
4.68242e-08
4.15636e-08
3.68302e-08
3.25794e-08
2.87694e-08
2.53609e-08
2.23176e-08
1.96055e-08
1.71932e-08
1.50516e-08
1.3154e-08
1.14757e-08
9.99419e-09
8.6889e-09
7.54101e-09
6.53344e-09
5.65069e-09
4.87876e-09
4.20499e-09
3.61799e-09
3.10754e-09
2.6645e-09
2.28066e-09
1.94873e-09
1.66224e-09
1.4154e-09
1.20314e-09
1.02093e-09
8.64821e-10
7.31312e-10
6.17343e-10
5.20232e-10
4.37638e-10
3.6752e-10
3.08101e-10
2.57841e-10
2.15406e-10
1.79644e-10
1.49559e-10
1.24297e-10
1.03123e-10
8.54074e-11
7.06128e-11
5.82798e-11
4.80175e-11
3.94937e-11
3.24267e-11
2.65782e-11
2.17467e-11
1.77627e-11
1.44834e-11
1.1789e-11
9.57926e-12
7.77021e-12
6.29188e-12
5.08597e-12
4.10406e-12
3.30598e-12
2.65848e-12
2.13409e-12
1.71016e-12
1.36807e-12
1.09251e-12
8.70941e-13
6.93104e-13
5.50622e-13
4.36671e-13
3.45702e-13
2.73209e-13
2.15543e-13
1.69754e-13
1.33459e-13
1.04743e-13
8.2063e-14
6.41822e-14
5.01104e-14
3.90559e-14
3.03872e-14
2.36015e-14
1.82993e-14
1.41636e-14
1.09436e-14
8.44094e-15
6.4993e-15
4.9956e-15
3.83313e-15
2.93606e-15
2.24503e-15
1.71365e-15
1.30578e-15
9.93254e-16
7.54217e-16
5.71712e-16
4.32616e-16
3.26793e-16
2.46427e-16
1.85501e-16
1.39396e-16
1.04568e-16
7.83056e-17
5.8537e-17
4.36829e-17
3.25415e-17
2.41995e-17
1.79647e-17
1.3313e-17
9.84863e-18
7.27301e-18
5.36154e-18
3.94542e-18
2.89808e-18
2.12476e-18
1.55467e-18
1.13494e-18
8.26212e-19
5.99152e-19
4.31918e-19
3.08204e-19
2.15772e-19
1.45324e-19
8.96384e-20
4.2874e-20
0
0
1.70377e-08
3.44978e-08
5.24795e-08
7.10851e-08
9.04194e-08
1.1059e-07
1.31705e-07
1.53876e-07
1.77214e-07
2.01831e-07
2.27839e-07
2.55348e-07
2.8447e-07
3.15309e-07
3.47971e-07
3.82554e-07
4.19154e-07
4.5786e-07
4.98753e-07
5.41907e-07
5.87387e-07
6.35247e-07
6.8553e-07
7.38268e-07
7.93478e-07
8.51163e-07
9.11312e-07
9.73897e-07
1.03887e-06
1.10618e-06
1.17574e-06
1.24745e-06
1.32119e-06
1.39683e-06
1.47422e-06
1.55318e-06
1.63352e-06
1.71502e-06
1.79746e-06
1.8806e-06
1.96418e-06
2.04791e-06
2.13152e-06
2.21471e-06
2.29716e-06
2.37856e-06
2.45859e-06
2.53691e-06
2.61321e-06
2.68715e-06
2.7584e-06
2.82665e-06
2.89158e-06
2.95289e-06
3.01029e-06
3.0635e-06
3.11226e-06
3.15634e-06
3.1955e-06
3.22957e-06
3.25835e-06
3.28171e-06
3.29953e-06
3.3117e-06
3.31818e-06
3.31893e-06
3.31394e-06
3.30324e-06
3.28688e-06
3.26495e-06
3.23757e-06
3.20486e-06
3.167e-06
3.12418e-06
3.07662e-06
3.02454e-06
2.9682e-06
2.90788e-06
2.84386e-06
2.77645e-06
2.70594e-06
2.63267e-06
2.55696e-06
2.47913e-06
2.39952e-06
2.31845e-06
2.23624e-06
2.15323e-06
2.06971e-06
1.98599e-06
1.90236e-06
1.81911e-06
1.73649e-06
1.65476e-06
1.57415e-06
1.49488e-06
1.41715e-06
1.34113e-06
1.267e-06
1.1949e-06
1.12496e-06
1.05727e-06
9.91943e-07
9.29042e-07
8.68625e-07
8.10733e-07
7.55391e-07
7.0261e-07
6.52387e-07
6.04707e-07
5.59542e-07
5.16856e-07
4.766e-07
4.3872e-07
4.03152e-07
3.69827e-07
3.3867e-07
3.09602e-07
2.82539e-07
2.57396e-07
2.34085e-07
2.12517e-07
1.92602e-07
1.74252e-07
1.57377e-07
1.41891e-07
1.27707e-07
1.14743e-07
1.02916e-07
9.21483e-08
8.23646e-08
7.34924e-08
6.54624e-08
5.82089e-08
5.16696e-08
4.57855e-08
4.05014e-08
3.57651e-08
3.1528e-08
2.77448e-08
2.43733e-08
2.13745e-08
1.87122e-08
1.63531e-08
1.42668e-08
1.2425e-08
1.08023e-08
9.3753e-09
8.1227e-09
7.02527e-09
6.0656e-09
5.22795e-09
4.49819e-09
3.86359e-09
3.31277e-09
2.83556e-09
2.4229e-09
2.0667e-09
1.75982e-09
1.49591e-09
1.26938e-09
1.07529e-09
9.09294e-10
7.67594e-10
6.46853e-10
5.44161e-10
4.56979e-10
3.831e-10
3.20608e-10
2.67846e-10
2.23379e-10
1.85971e-10
1.5456e-10
1.28231e-10
1.06204e-10
8.78074e-11
7.24719e-11
5.97111e-11
4.91119e-11
4.03242e-11
3.30515e-11
2.70435e-11
2.20893e-11
1.80114e-11
1.46609e-11
1.19129e-11
9.66325e-12
7.82483e-12
6.32517e-12
5.10407e-12
4.11157e-12
3.30631e-12
2.65416e-12
2.12695e-12
1.7015e-12
1.35879e-12
1.08323e-12
8.62056e-13
6.84849e-13
5.43126e-13
4.29984e-13
3.39821e-13
2.68098e-13
2.11146e-13
1.66004e-13
1.30286e-13
1.02076e-13
7.98358e-14
6.23326e-14
4.85824e-14
3.77996e-14
2.9359e-14
2.27636e-14
1.76192e-14
1.36137e-14
1.05006e-14
8.08525e-15
6.21469e-15
4.7686e-15
3.65265e-15
2.79299e-15
2.13194e-15
1.62453e-15
1.23573e-15
9.3835e-16
7.11297e-16
5.38247e-16
4.06591e-16
3.06604e-16
2.30803e-16
1.73441e-16
1.30109e-16
9.74326e-17
7.28362e-17
5.43543e-17
4.04917e-17
3.01121e-17
2.23542e-17
1.65662e-17
1.22554e-17
9.05047e-18
6.67193e-18
4.90977e-18
3.60648e-18
2.64418e-18
1.93474e-18
1.41242e-18
1.02823e-18
7.45659e-19
5.37539e-19
3.83577e-19
2.68542e-19
1.80867e-19
1.11563e-19
5.33607e-20
0
0
2.106e-08
4.26421e-08
6.48689e-08
8.78668e-08
1.11765e-07
1.36697e-07
1.62797e-07
1.90202e-07
2.19049e-07
2.49477e-07
2.81624e-07
3.15627e-07
3.51622e-07
3.89741e-07
4.30111e-07
4.72857e-07
5.18096e-07
5.65937e-07
6.16481e-07
6.6982e-07
7.26033e-07
7.85188e-07
8.47338e-07
9.12521e-07
9.80759e-07
1.05206e-06
1.1264e-06
1.20375e-06
1.28406e-06
1.36725e-06
1.45322e-06
1.54185e-06
1.633e-06
1.72649e-06
1.82214e-06
1.91973e-06
2.01902e-06
2.11975e-06
2.22165e-06
2.3244e-06
2.4277e-06
2.53119e-06
2.63453e-06
2.73734e-06
2.83925e-06
2.93985e-06
3.03876e-06
3.13557e-06
3.22986e-06
3.32124e-06
3.40931e-06
3.49366e-06
3.57391e-06
3.64969e-06
3.72063e-06
3.78639e-06
3.84666e-06
3.90114e-06
3.94955e-06
3.99165e-06
4.02722e-06
4.0561e-06
4.07812e-06
4.09317e-06
4.10118e-06
4.1021e-06
4.09594e-06
4.08271e-06
4.0625e-06
4.0354e-06
4.00155e-06
3.96113e-06
3.91435e-06
3.86143e-06
3.80264e-06
3.73828e-06
3.66865e-06
3.5941e-06
3.51498e-06
3.43166e-06
3.34452e-06
3.25397e-06
3.16039e-06
3.0642e-06
2.9658e-06
2.86561e-06
2.76401e-06
2.6614e-06
2.55818e-06
2.45471e-06
2.35135e-06
2.24845e-06
2.14634e-06
2.04533e-06
1.9457e-06
1.84772e-06
1.75164e-06
1.65769e-06
1.56607e-06
1.47695e-06
1.3905e-06
1.30684e-06
1.2261e-06
1.14835e-06
1.07368e-06
1.00212e-06
9.3372e-07
8.68482e-07
8.06405e-07
7.47471e-07
6.91646e-07
6.38884e-07
5.89127e-07
5.42305e-07
4.98342e-07
4.5715e-07
4.18639e-07
3.82708e-07
3.49257e-07
3.18178e-07
2.89363e-07
2.62703e-07
2.38087e-07
2.15404e-07
1.94545e-07
1.75402e-07
1.5787e-07
1.41844e-07
1.27224e-07
1.13914e-07
1.0182e-07
9.08524e-08
8.0926e-08
7.19595e-08
6.38758e-08
5.66021e-08
5.00699e-08
4.42149e-08
3.8977e-08
3.43002e-08
3.01323e-08
2.6425e-08
2.31338e-08
2.02175e-08
1.76382e-08
1.53613e-08
1.33552e-08
1.1591e-08
1.00425e-08
8.68572e-09
7.49928e-09
6.46369e-09
5.56147e-09
4.77689e-09
4.0959e-09
3.50591e-09
2.99571e-09
2.55532e-09
2.1759e-09
1.84961e-09
1.56953e-09
1.32955e-09
1.12432e-09
9.49116e-10
7.99829e-10
6.72856e-10