# vtk DataFile Version 3.0
2D field
ASCII
DATASET STRUCTURED_POINTS
DIMENSIONS 257 257 1
ORIGIN 0 0 0
SPACING 0.00390625 0.00390625 1
POINT_DATA 66049
SCALARS temperature double 1
LOOKUP_TABLE default
0
0
0
0
0
0
0
0
0
0
0
0
0
0
0
0
0
0
0
0
0
0
0
0
0
0
0
0
0
0
0
0
0
0
0
0
0
0
0
0
0
0
0
0
0
0
0
0
0
0
0
0
0
0
0
0
0
0
0
0
0
0
0
0
0
0
0
0
0
0
0
0
0
0
0
0
0
0
0
0
0
0
0
0
0
0
0
0
0
0
0
0
0
0
0
0
0
0
0
0
0
0
0
0
0
0
0
0
0
0
0
0
0
0
0
0
0
0
0
0
0
0
0
0
0
0
0
0
0
0
0
0
0
0
0
0
0
0
0
0
0
0
0
0
0
0
0
0
0
0
0
0
0
0
0
0
0
0
0
0
0
0
0
0
0
0
0
0
0
0
0
0
0
0
0
0
0
0
0
0
0
0
0
0
0
0
0
0
0
0
0
0
0
0
0
0
0
0
0
0
0
0
0
0
0
0
0
0
0
0
0
0
0
0
0
0
0
0
0
0
0
0
0
0
0
0
0
0
0
0
0
0
0
0
0
0
0
0
0
0
0
0
0
0
0
0
0
0
0
0
0
0
0
0
0
0
0
0
1.96468e-09
3.97698e-09
6.04724e-09
8.18606e-09
1.04043e-08
1.27131e-08
1.51237e-08
1.76474e-08
2.02956e-08
2.30798e-08
2.60114e-08
2.91014e-08
3.23608e-08
3.58005e-08
3.94305e-08
4.32609e-08
4.73008e-08
5.15588e-08
5.60427e-08
6.07596e-08
6.57153e-08
7.09148e-08
7.63618e-08
8.20589e-08
8.8007e-08
9.4206e-08
1.00654e-07
1.07347e-07
1.1428e-07
1.21447e-07
1.28838e-07
1.36442e-07
1.44248e-07
1.52242e-07
1.60406e-07
1.68722e-07
1.77172e-07
1.85732e-07
1.94381e-07
2.03092e-07
2.1184e-07
2.20596e-07
2.29332e-07
2.38017e-07
2.4662e-07
2.55109e-07
2.63451e-07
2.71614e-07
2.79565e-07
2.8727e-07
2.94698e-07
3.01815e-07
3.08591e-07
3.14995e-07
3.20997e-07
3.26571e-07
3.3169e-07
3.3633e-07
3.40468e-07
3.44084e-07
3.47162e-07
3.49686e-07
3.51642e-07
3.53023e-07
3.53821e-07
3.54031e-07
3.53653e-07
3.52689e-07
3.51144e-07
3.49024e-07
3.46342e-07
3.43109e-07
3.39342e-07
3.35059e-07
3.3028e-07
3.25029e-07
3.19331e-07
3.13211e-07
3.06698e-07
2.99822e-07
2.92614e-07
2.85104e-07
2.77326e-07
2.69312e-07
2.61095e-07
2.52708e-07
2.44185e-07
2.35557e-07
2.26857e-07
2.18115e-07
2.09362e-07
2.00626e-07
1.91935e-07
1.83316e-07
1.74793e-07
1.66389e-07
1.58127e-07
1.50025e-07
1.42102e-07
1.34373e-07
1.26854e-07
1.19557e-07
1.12492e-07
1.05669e-07
9.90949e-08
9.27754e-08
8.67145e-08
8.0915e-08
7.53779e-08
7.01031e-08
6.5089e-08
6.03332e-08
5.58319e-08
5.15806e-08
4.75739e-08
4.38055e-08
4.02685e-08
3.69556e-08
3.3859e-08
3.09702e-08
2.82808e-08
2.57821e-08
2.34651e-08
2.13208e-08
1.93402e-08
1.75145e-08
1.58348e-08
1.42923e-08
1.28787e-08
1.15856e-08
1.0405e-08
9.3292e-09
8.35071e-09
7.46242e-09
6.65753e-09
5.92959e-09
5.27246e-09
4.68036e-09
4.14784e-09
3.6698e-09
3.24146e-09
2.85835e-09
2.51633e-09
2.21155e-09
1.94046e-09
1.69976e-09
1.48644e-09
1.29774e-09
1.1311e-09
9.84224e-10
8.54994e-10
7.41497e-10
6.41996e-10
5.54923e-10
4.78861e-10
4.12538e-10
3.54809e-10
3.04651e-10
2.61148e-10
2.23485e-10
1.90935e-10
1.62855e-10
1.38673e-10
1.17886e-10
1.00047e-10
8.47671e-11
7.1701e-11
6.0548e-11
5.10448e-11
4.29614e-11
3.6098e-11
3.02805e-11
2.53583e-11
2.12009e-11
1.76955e-11
1.47452e-11
1.22662e-11
1.01871e-11
8.44627e-12
6.99126e-12
5.77727e-12
4.76613e-12
3.92541e-12
3.2276e-12
2.64942e-12
2.17119e-12
1.77632e-12
1.45084e-12
1.18303e-12
9.63043e-13
7.82658e-13
6.35e-13
5.14342e-13
4.15916e-13
3.35764e-13
2.70607e-13
2.17731e-13
1.74894e-13
1.40251e-13
1.12283e-13
8.97419e-14
7.16065e-14
5.70407e-14
4.53621e-14
3.60144e-14
2.85453e-14
2.25875e-14
1.78434e-14
1.40722e-14
1.10795e-14
8.7087e-15
6.83379e-15
5.35359e-15
4.18701e-15
3.26917e-15
2.54827e-15
1.98302e-15
1.54058e-15
1.19486e-15
9.25175e-16
7.15163e-16
5.519e-16
4.25197e-16
3.27035e-16
2.51116e-16
1.92498e-16
1.47317e-16
1.12553e-16
8.58482e-17
6.53704e-17
4.96941e-17
3.7714e-17
2.85742e-17
2.16133e-17
1.63207e-17
1.23036e-17
9.25975e-18
6.95727e-18
5.21856e-18
3.9078e-18
2.92134e-18
2.1802e-18
1.62428e-18
1.20799e-18
8.96725e-19
6.6433e-19
4.91023e-19
3.61869e-19
2.656e-19
1.93708e-19
1.39749e-19
9.88168e-20
6.71227e-20
4.16754e-20
2.00166e-20
0
0
4.00882e-09
8.11482e-09
1.23391e-08
1.67032e-08
2.12295e-08
2.59405e-08
3.08591e-08
3.60085e-08
4.14121e-08
4.70931e-08
5.30747e-08
5.93796e-08
6.60303e-08
7.30487e-08
8.04556e-08
8.82711e-08
9.65142e-08
1.05202e-07
1.14351e-07
1.23976e-07
1.34087e-07
1.44697e-07
1.55811e-07
1.67435e-07
1.79572e-07
1.9222e-07
2.05376e-07
2.19033e-07
2.3318e-07
2.47803e-07
2.62883e-07
2.784e-07
2.94327e-07
3.10636e-07
3.27294e-07
3.44263e-07
3.61504e-07
3.78971e-07
3.96617e-07
4.14392e-07
4.32241e-07
4.50108e-07
4.67932e-07
4.85652e-07
5.03206e-07
5.20526e-07
5.37548e-07
5.54204e-07
5.70427e-07
5.86149e-07
6.01304e-07
6.15826e-07
6.29651e-07
6.42717e-07
6.54965e-07
6.66338e-07
6.76782e-07
6.86249e-07
6.94692e-07
7.02072e-07
7.08351e-07
7.135e-07
7.17493e-07
7.2031e-07
7.21937e-07
7.22367e-07
7.21596e-07
7.19629e-07
7.16476e-07
7.12152e-07
7.06678e-07
7.00082e-07
6.92396e-07
6.83657e-07
6.73907e-07
6.63193e-07
6.51566e-07
6.39079e-07
6.25791e-07
6.11761e-07
5.97053e-07
5.8173e-07
5.6586e-07
5.49508e-07
5.32742e-07
5.15631e-07
4.9824e-07
4.80635e-07
4.62883e-07
4.45046e-07
4.27186e-07
4.09362e-07
3.91629e-07
3.74043e-07
3.56652e-07
3.39506e-07
3.22647e-07
3.06116e-07
2.89949e-07
2.7418e-07
2.58838e-07
2.43948e-07
2.29533e-07
2.15611e-07
2.02197e-07
1.89303e-07
1.76936e-07
1.65103e-07
1.53805e-07
1.43042e-07
1.32811e-07
1.23107e-07
1.13923e-07
1.05248e-07
9.70726e-08
8.93834e-08
8.21665e-08
7.54067e-08
6.90881e-08
6.31938e-08
5.77063e-08
5.26077e-08
4.78799e-08
4.35046e-08
3.94634e-08
3.57381e-08
3.23106e-08
2.91634e-08
2.62789e-08
2.36404e-08
2.12314e-08
1.90362e-08
1.70396e-08
1.52271e-08
1.35847e-08
1.20994e-08
1.07585e-08
9.55034e-09
8.46375e-09
7.48831e-09
6.61427e-09
5.83254e-09
5.13465e-09
4.51274e-09
3.95957e-09
3.46843e-09
3.03315e-09
2.64809e-09
2.30807e-09
2.00836e-09
1.74466e-09
1.51307e-09
1.31003e-09
1.13236e-09
9.7715e-10
8.41814e-10
7.24015e-10
6.21664e-10
5.32895e-10
4.56041e-10
3.89621e-10
3.32321e-10
2.82976e-10
2.40558e-10
2.04157e-10
1.72977e-10
1.46314e-10
1.23555e-10
1.04163e-10
8.76682e-11
7.36626e-11
6.17915e-11
5.17472e-11
4.32634e-11
3.61103e-11
3.00897e-11
2.50312e-11
2.07884e-11
1.7236e-11
1.42668e-11
1.17895e-11
9.72612e-12
8.0105e-12
6.58652e-12
5.40665e-12
4.43074e-12
3.62494e-12
2.96074e-12
2.41421e-12
1.96529e-12
1.59718e-12
1.29586e-12
1.04963e-12
8.48773e-13
6.85207e-13
5.52239e-13
4.44333e-13
3.56916e-13
2.86219e-13
2.29142e-13
1.83142e-13
1.46133e-13
1.16408e-13
9.25742e-14
7.34978e-14
5.82551e-14
4.60966e-14
3.64148e-14
2.87186e-14
2.26112e-14
1.77729e-14
1.39466e-14
1.09258e-14
8.54501e-15
6.67186e-15
5.20063e-15
4.04706e-15
3.14411e-15
2.43855e-15
1.88816e-15
1.45956e-15
1.12636e-15
8.67781e-16
6.67445e-16
5.12502e-16
3.92871e-16
3.00662e-16
2.29711e-16
1.7521e-16
1.33417e-16
1.01423e-16
7.69723e-17
5.83186e-17
4.41118e-17
3.331e-17
2.51113e-17
1.88989e-17
1.41997e-17
1.0651e-17
7.97581e-18
5.96247e-18
4.4498e-18
3.31519e-18
2.46553e-18
1.83024e-18
1.35592e-18
1.0022e-18
7.38592e-19
5.42104e-19
3.95369e-19
2.85238e-19
2.01692e-19
1.37003e-19
8.50628e-20
4.08555e-20
0
0
6.21454e-09
1.25797e-08
1.91282e-08
2.58936e-08
3.29103e-08
4.02133e-08
4.78382e-08
5.58209e-08
6.41976e-08
7.30043e-08
8.22769e-08
9.20508e-08
1.02361e-07
1.13241e-07
1.24723e-07
1.36838e-07
1.49617e-07
1.63085e-07
1.77268e-07
1.92187e-07
2.07862e-07
2.24308e-07
2.41537e-07
2.59557e-07
2.78371e-07
2.97978e-07
3.18372e-07
3.39543e-07
3.61472e-07
3.8414e-07
4.07517e-07
4.3157e-07
4.56261e-07
4.81542e-07
5.07364e-07
5.33669e-07
5.60395e-07
5.87472e-07
6.14826e-07
6.4238e-07
6.70049e-07
6.97744e-07
7.25375e-07
7.52844e-07
7.80054e-07
8.06904e-07
8.33291e-07
8.5911e-07
8.84257e-07
9.08629e-07
9.32121e-07
9.54632e-07
9.76063e-07
9.96318e-07
1.0153e-06
1.03293e-06
1.04912e-06
1.0638e-06
1.07689e-06
1.08833e-06
1.09806e-06
1.10604e-06
1.11223e-06
1.1166e-06
1.11912e-06
1.11979e-06
1.11859e-06
1.11555e-06
1.11066e-06
1.10395e-06
1.09547e-06
1.08525e-06
1.07333e-06
1.05978e-06
1.04467e-06
1.02806e-06
1.01004e-06
9.90683e-07
9.70084e-07
9.48336e-07
9.25536e-07
9.01784e-07
8.77183e-07
8.51835e-07
8.25846e-07
7.9932e-07
7.72362e-07
7.45073e-07
7.17554e-07
6.89904e-07
6.62218e-07
6.34587e-07
6.071e-07
5.79838e-07
5.5288e-07
5.263e-07
5.00166e-07
4.7454e-07
4.49479e-07
4.25034e-07
4.01251e-07
3.7817e-07
3.55824e-07
3.34243e-07
3.13448e-07
2.9346e-07
2.74289e-07
2.55945e-07
2.38431e-07
2.21746e-07
2.05887e-07
1.90844e-07
1.76606e-07
1.63159e-07
1.50485e-07
1.38565e-07
1.27378e-07
1.16899e-07
1.07103e-07
9.79659e-08
8.94591e-08
8.15552e-08
7.42261e-08
6.74433e-08
6.11785e-08
5.54034e-08
5.00901e-08
4.52111e-08
4.07394e-08
3.66491e-08
3.29146e-08
2.95115e-08
2.64163e-08
2.36064e-08
2.10603e-08
1.87576e-08
1.66789e-08
1.48059e-08
1.31214e-08
1.16092e-08
1.02542e-08
9.04228e-09
7.96035e-09
6.99622e-09
6.13863e-09
5.37721e-09
4.7024e-09
4.10544e-09
3.5783e-09
3.11366e-09
2.70484e-09
2.34579e-09
2.03102e-09
1.75557e-09
1.51494e-09
1.30512e-09
1.1225e-09
9.63817e-10
8.26192e-10
7.07041e-10
6.04066e-10
5.15231e-10
4.38728e-10
3.72963e-10
3.16528e-10
2.68186e-10
2.26849e-10
1.91564e-10
1.61498e-10
1.35924e-10
1.1421e-10
9.58045e-11
8.02315e-11
6.70781e-11
5.59877e-11
4.66531e-11
3.88102e-11
3.22319e-11
2.67241e-11
2.21206e-11
1.82796e-11
1.50804e-11
1.24203e-11
1.02125e-11
8.3831e-12
6.86996e-12
5.62056e-12
4.59073e-12
3.74334e-12
3.04728e-12
2.47652e-12
2.00931e-12
1.62752e-12
1.31608e-12
1.06246e-12
8.56292e-13
6.88977e-13
5.53431e-13
4.43811e-13
3.5531e-13
2.83983e-13
2.26596e-13
1.80504e-13
1.43549e-13
1.13969e-13
9.0333e-14
7.14797e-14
5.6467e-14
4.45329e-14
3.50625e-14
2.756e-14
2.16268e-14
1.69425e-14
1.32507e-14
1.03461e-14
8.06468e-15
6.27586e-15
4.87566e-15
3.78154e-15
2.92805e-15
2.26341e-15
1.74672e-15
1.34572e-15
1.03505e-15
7.94777e-16
6.09259e-16
4.66265e-16
3.56236e-16
2.71717e-16
2.06905e-16
1.57289e-16
1.19371e-16
9.04428e-17
6.84106e-17
5.16591e-17
3.89442e-17
2.93098e-17
2.2022e-17
1.65185e-17
1.23696e-17
9.24722e-18
6.90125e-18
5.14159e-18
3.82385e-18
2.83859e-18
2.10296e-18
1.55436e-18
1.14553e-18
8.40786e-19
6.13208e-19
4.42399e-19
3.12823e-19
2.12491e-19
1.31932e-19
6.3367e-20
0
0
8.66931e-09
1.75488e-08
2.6684e-08
3.61217e-08
4.591e-08
5.60976e-08
6.67344e-08
7.78702e-08
8.95556e-08
1.01841e-07
1.14776e-07
1.28411e-07
1.42793e-07
1.5797e-07
1.73987e-07
1.90888e-07
2.08713e-07
2.27501e-07
2.47286e-07
2.68098e-07
2.89964e-07
3.12905e-07
3.36939e-07
3.62076e-07
3.8832e-07
4.15671e-07
4.4412e-07
4.73651e-07
5.04242e-07
5.35862e-07
5.68471e-07
6.02024e-07
6.36466e-07
6.71732e-07
7.07752e-07
7.44446e-07
7.81726e-07
8.19496e-07
8.57654e-07
8.96089e-07
9.34685e-07
9.73319e-07
1.01186e-06
1.05018e-06
1.08814e-06
1.12559e-06
1.1624e-06
1.19841e-06
1.23349e-06
1.26749e-06
1.30026e-06
1.33166e-06
1.36155e-06
1.38981e-06
1.41629e-06
1.44088e-06
1.46347e-06
1.48394e-06
1.5022e-06
1.51815e-06
1.53173e-06
1.54287e-06
1.5515e-06
1.55759e-06
1.56111e-06
1.56204e-06
1.56037e-06
1.55612e-06
1.5493e-06
1.53995e-06
1.52812e-06
1.51386e-06
1.49724e-06
1.47834e-06
1.45726e-06
1.43409e-06
1.40895e-06
1.38195e-06
1.35322e-06
1.32288e-06
1.29108e-06
1.25795e-06
1.22363e-06
1.18827e-06
1.15202e-06
1.11502e-06
1.07741e-06
1.03935e-06
1.00096e-06
9.62393e-07
9.23773e-07
8.8523e-07
8.46886e-07
8.08858e-07
7.71254e-07
7.34176e-07
6.97721e-07
6.61974e-07
6.27015e-07
5.92916e-07
5.5974e-07
5.27543e-07
4.96372e-07
4.66267e-07
4.3726e-07
4.09376e-07
3.82634e-07
3.57045e-07
3.32613e-07
3.09339e-07
2.87215e-07
2.6623e-07
2.46369e-07
2.2761e-07
2.0993e-07
1.93302e-07
1.77696e-07
1.63077e-07
1.49413e-07
1.36666e-07
1.24799e-07
1.13773e-07
1.03549e-07
9.4087e-08
8.53475e-08
7.72911e-08
6.98789e-08
6.30725e-08
5.68344e-08
5.11282e-08
4.59185e-08
4.1171e-08
3.6853e-08
3.29331e-08
2.93812e-08
2.61687e-08
2.32688e-08
2.06558e-08
1.83058e-08
1.61962e-08
1.43058e-08
1.26151e-08
1.11057e-08
9.76066e-09
8.56425e-09
7.50198e-09
6.56055e-09
5.72772e-09
4.99229e-09
4.34406e-09
3.77371e-09
3.27279e-09
2.83364e-09
2.44934e-09
2.11363e-09
1.8209e-09
1.56611e-09
1.34472e-09
1.15271e-09
9.86474e-10
8.42806e-10
7.18863e-10
6.12127e-10
5.20372e-10
4.41634e-10
3.74186e-10
3.16512e-10
2.67281e-10
2.25332e-10
1.89651e-10
1.59354e-10
1.33674e-10
1.11946e-10
9.35938e-11
7.81198e-11
6.50956e-11
5.41524e-11
4.49739e-11
3.72889e-11
3.08656e-11
2.55063e-11
2.10424e-11
1.73308e-11
1.42501e-11
1.16975e-11
9.58618e-12
7.84284e-12
6.40585e-12
5.22344e-12
4.25218e-12
3.45576e-12
2.80382e-12
2.27108e-12
1.8365e-12
1.48261e-12
1.19491e-12
9.61437e-13
7.72292e-13
6.19324e-13
4.95827e-13
3.96294e-13
3.16213e-13
2.51894e-13
2.00323e-13
1.59045e-13
1.26062e-13
9.97523e-14
7.8802e-14
6.21479e-14
4.89318e-14
3.84618e-14
3.01818e-14
2.36447e-14
1.84926e-14
1.4439e-14
1.12551e-14
8.75869e-15
6.8046e-15
5.27765e-15
4.08651e-15
3.15893e-15
2.43782e-15
1.87818e-15
1.4446e-15
1.10926e-15
8.5034e-16
6.50768e-16
4.97203e-16
3.79242e-16
2.88783e-16
2.19534e-16
1.66612e-16
1.26237e-16
9.54855e-17
7.21047e-17
5.43579e-17
4.09106e-17
3.07384e-17
2.30569e-17
1.72659e-17
1.29076e-17
9.6331e-18
7.17693e-18
5.33759e-18
3.96232e-18
2.9355e-18
2.16973e-18
1.59905e-18
1.17367e-18
8.55994e-19
6.17561e-19
4.36683e-19
2.96626e-19
1.84172e-19
8.84577e-20
0
0
1.14688e-08
2.32157e-08
3.53008e-08
4.77862e-08
6.07352e-08
7.42126e-08
8.82841e-08
1.03016e-07
1.18475e-07
1.34727e-07
1.51839e-07
1.69876e-07
1.88902e-07
2.08979e-07
2.30168e-07
2.52526e-07
2.76107e-07
3.00961e-07
3.27134e-07
3.54665e-07
3.83591e-07
4.1394e-07
4.45733e-07
4.78985e-07
5.13703e-07
5.49884e-07
5.87518e-07
6.26584e-07
6.67051e-07
7.08879e-07
7.52016e-07
7.96402e-07
8.41962e-07
8.88614e-07
9.36262e-07
9.84802e-07
1.03412e-06
1.08408e-06
1.13456e-06
1.1854e-06
1.23646e-06
1.28756e-06
1.33855e-06
1.38924e-06
1.43944e-06
1.48899e-06
1.53768e-06
1.58532e-06
1.63172e-06
1.6767e-06
1.72004e-06
1.76158e-06
1.80113e-06
1.8385e-06
1.87354e-06
1.90607e-06
1.93594e-06
1.96302e-06
1.98718e-06
2.00828e-06
2.02625e-06
2.04098e-06
2.0524e-06
2.06046e-06
2.06511e-06
2.06634e-06
2.06414e-06
2.05852e-06
2.0495e-06
2.03713e-06
2.02148e-06
2.00261e-06
1.98063e-06
1.95563e-06
1.92775e-06
1.8971e-06
1.86384e-06
1.82813e-06
1.79012e-06
1.74999e-06
1.70792e-06
1.66409e-06
1.6187e-06
1.57193e-06
1.52397e-06
1.47503e-06
1.42528e-06
1.37493e-06
1.32415e-06
1.27313e-06
1.22204e-06
1.17105e-06
1.12033e-06
1.07003e-06
1.02028e-06
9.71234e-07
9.23009e-07
8.75721e-07
8.29476e-07
7.84368e-07
7.40481e-07
6.97889e-07
6.56653e-07
6.16828e-07
5.78456e-07
5.4157e-07
5.06193e-07
4.72342e-07
4.40022e-07
4.09232e-07
3.79965e-07
3.52205e-07
3.2593e-07
3.01115e-07
2.77726e-07
2.55729e-07
2.35083e-07
2.15744e-07
1.97667e-07
1.80804e-07
1.65105e-07
1.50519e-07
1.36993e-07
1.24475e-07
1.12913e-07
1.02255e-07
9.24491e-08
8.34446e-08
7.51919e-08
6.76428e-08
6.07505e-08
5.44698e-08
4.87572e-08
4.35712e-08
3.88721e-08
3.46221e-08
3.07855e-08
2.73285e-08
2.42194e-08
2.14284e-08
1.89274e-08
1.66906e-08
1.46936e-08
1.29141e-08
1.13312e-08
9.92575e-09
8.68019e-09
7.57831e-09
6.6053e-09
5.74765e-09
4.99304e-09
4.33028e-09
3.74925e-09
3.24079e-09
2.79662e-09
2.40931e-09
2.07219e-09
1.77927e-09
1.52522e-09
1.30527e-09
1.11518e-09
9.51185e-10
8.09958e-10
6.88552e-10
5.8437e-10
4.95125e-10
4.18812e-10
3.53672e-10
2.98166e-10
2.50953e-10
2.10864e-10
1.76884e-10
1.48133e-10
1.23849e-10
1.03374e-10
8.61394e-11
7.1659e-11
5.95136e-11
4.93444e-11
4.08447e-11
3.37528e-11
2.78458e-11
2.29343e-11
1.88577e-11
1.54799e-11
1.26859e-11
1.03789e-11
8.47731e-12
6.91258e-12
5.62728e-12
4.57333e-12
3.71058e-12
3.00558e-12
2.43046e-12
1.96212e-12
1.58139e-12
1.27241e-12
1.02209e-12
8.19653e-13
6.56213e-13
5.24487e-13
4.18505e-13
3.33382e-13
2.6513e-13
2.10499e-13
1.66846e-13
1.32026e-13
1.04298e-13
8.22562e-14
6.47643e-14
5.09071e-14
3.99481e-14
3.1296e-14
2.44769e-14
1.91116e-14
1.48976e-14
1.15933e-14
9.00686e-15
6.98578e-15
5.40917e-15
4.18139e-15
3.2269e-15
2.48614e-15
1.91223e-15
1.46834e-15
1.12562e-15
8.61445e-16
6.58172e-16
5.02024e-16
3.82282e-16
2.90615e-16
2.2056e-16
1.67112e-16
1.26405e-16
9.54538e-17
7.19609e-17
5.41594e-17
4.06933e-17
3.05243e-17
2.2858e-17
1.70883e-17
1.27533e-17
9.50165e-18
7.06658e-18
5.24587e-18
3.88645e-18
2.87264e-18
2.1171e-18
1.55392e-18
1.13333e-18
8.17654e-19
5.78175e-19
3.9274e-19
2.43849e-19
1.17121e-19
0
0
1.472e-08
2.97969e-08
4.53079e-08
6.13326e-08
7.79524e-08
9.52503e-08
1.13311e-07
1.32218e-07
1.52059e-07
1.72918e-07
1.9488e-07
2.1803e-07
2.42449e-07
2.68218e-07
2.95413e-07
3.24108e-07
3.54372e-07
3.8627e-07
4.19861e-07
4.55196e-07
4.9232e-07
5.3127e-07
5.72074e-07
6.1475e-07
6.59307e-07
7.05743e-07
7.54042e-07
8.04179e-07
8.56114e-07
9.09796e-07
9.65158e-07
1.02212e-06
1.08059e-06
1.14047e-06
1.20162e-06
1.26391e-06
1.3272e-06
1.39133e-06
1.45611e-06
1.52136e-06
1.58688e-06
1.65247e-06
1.7179e-06
1.78295e-06
1.84739e-06
1.91098e-06
1.97346e-06
2.03461e-06
2.09416e-06
2.15187e-06
2.20751e-06
2.26082e-06
2.31157e-06
2.35953e-06
2.4045e-06
2.44625e-06
2.48459e-06
2.51934e-06
2.55034e-06
2.57743e-06
2.60048e-06
2.61939e-06
2.63405e-06
2.64439e-06
2.65036e-06
2.65194e-06
2.64912e-06
2.6419e-06
2.63033e-06
2.61446e-06
2.59437e-06
2.57016e-06
2.54194e-06
2.50987e-06
2.47408e-06
2.43475e-06
2.39207e-06
2.34624e-06
2.29746e-06
2.24596e-06
2.19197e-06
2.13572e-06
2.07746e-06
2.01744e-06
1.9559e-06
1.89308e-06
1.82924e-06
1.76462e-06
1.69945e-06
1.63397e-06
1.5684e-06
1.50297e-06
1.43787e-06
1.37331e-06
1.30947e-06
1.24652e-06
1.18463e-06
1.12394e-06
1.06459e-06
1.0067e-06
9.50376e-07
8.95713e-07
8.42791e-07
7.91679e-07
7.42431e-07
6.95091e-07
6.49687e-07
6.06241e-07
5.64761e-07
5.25245e-07
4.87682e-07
4.52053e-07
4.18331e-07
3.86481e-07
3.56463e-07
3.28231e-07
3.01732e-07
2.76911e-07
2.53711e-07
2.32067e-07
2.11918e-07
1.93196e-07
1.75836e-07
1.59769e-07
1.4493e-07
1.3125e-07
1.18664e-07
1.07106e-07
9.6514e-08
8.68245e-08
7.7978e-08
6.99165e-08
6.25842e-08
5.59277e-08
4.98961e-08
4.4441e-08
3.95166e-08
3.50793e-08
3.10886e-08
2.7506e-08
2.42959e-08
2.14247e-08
1.88614e-08
1.65771e-08
1.45453e-08
1.27413e-08
1.11425e-08
9.72809e-09
8.4791e-09
7.37818e-09
6.40953e-09
5.55879e-09
4.81294e-09
4.16024e-09
3.59008e-09
3.0929e-09
2.66014e-09
2.28413e-09
1.958e-09
1.67565e-09
1.43162e-09
1.2211e-09
1.03981e-09
8.83952e-10
7.50209e-10
6.35642e-10
5.37674e-10
4.54049e-10
3.82792e-10
3.22181e-10
2.70715e-10
2.27092e-10
1.90182e-10
1.59005e-10
1.32718e-10
1.10593e-10
9.20022e-11
7.64093e-11
6.33535e-11
5.2441e-11
4.33359e-11
3.57521e-11
2.94463e-11
2.42123e-11
1.98755e-11
1.62883e-11
1.33263e-11
1.08847e-11
8.87571e-12
7.22544e-12
5.87221e-12
4.76447e-12
3.85925e-12
3.12081e-12
2.51946e-12
2.0306e-12
1.63386e-12
1.31245e-12
1.05251e-12
8.42643e-13
6.73499e-13
5.3741e-13
4.28105e-13
3.40463e-13
2.70312e-13
2.14257e-13
1.69544e-13
1.33938e-13
1.05633e-13
8.31705e-14
6.53756e-14
5.13023e-14
4.01914e-14
3.14343e-14
2.45443e-14
1.91325e-14
1.4889e-14
1.15674e-14
8.97185e-15
6.94707e-15
5.37027e-15
4.14443e-15
3.19307e-15
2.45599e-15
1.8859e-15
1.44572e-15
1.10644e-15
8.4536e-16
6.4481e-16
4.91016e-16
3.73279e-16
2.83299e-16
2.1465e-16
1.62365e-16
1.2261e-16
9.24342e-17
6.95687e-17
5.22718e-17
3.92098e-17
2.93624e-17
2.19511e-17
1.63827e-17
1.22058e-17
9.0778e-18
6.73896e-18
4.99267e-18
3.69033e-18
2.71975e-18
1.99628e-18
1.45597e-18
1.05044e-18
7.42786e-19
5.0456e-19
3.13278e-19
1.50468e-19
0
0
1.85444e-08
3.75384e-08
5.70793e-08
7.72673e-08
9.82051e-08
1.19997e-07
1.42749e-07
1.66569e-07
1.91564e-07
2.17842e-07
2.4551e-07
2.74674e-07
3.05436e-07
3.37899e-07
3.72158e-07
4.08307e-07
4.46433e-07
4.86617e-07
5.28933e-07
5.73446e-07
6.20213e-07
6.6928e-07
7.20682e-07
7.74443e-07
8.30573e-07
8.89069e-07
9.49913e-07
1.01307e-06
1.0785e-06
1.14612e-06
1.21586e-06
1.28762e-06
1.36128e-06
1.4367e-06
1.51373e-06
1.59221e-06
1.67193e-06
1.75271e-06
1.83431e-06
1.91651e-06
1.99905e-06
2.08167e-06
2.1641e-06
2.24604e-06
2.32721e-06
2.40731e-06
2.48602e-06
2.56305e-06
2.63806e-06
2.71077e-06
2.78085e-06
2.848e-06
2.91193e-06
2.97236e-06
3.02899e-06
3.08159e-06
3.12989e-06
3.17366e-06
3.21271e-06
3.24684e-06
3.27588e-06
3.29969e-06
3.31816e-06
3.33119e-06
3.33872e-06
3.34071e-06
3.33715e-06
3.32806e-06
3.31348e-06
3.29349e-06
3.26819e-06
3.23769e-06
3.20215e-06
3.16175e-06
3.11667e-06
3.06713e-06
3.01337e-06
2.95563e-06
2.89419e-06
2.82932e-06
2.7613e-06
2.69045e-06
2.61707e-06
2.54145e-06
2.46393e-06
2.3848e-06
2.30438e-06
2.22298e-06
2.14089e-06
2.0584e-06
1.97581e-06
1.89338e-06
1.81138e-06
1.73005e-06
1.64963e-06
1.57034e-06
1.49237e-06
1.41592e-06
1.34115e-06
1.26822e-06
1.19727e-06
1.12841e-06
1.06174e-06
9.97354e-07
9.35314e-07
8.75677e-07
8.1848e-07
7.63749e-07
7.11494e-07
6.61712e-07
6.14392e-07
5.69508e-07
5.27026e-07
4.86902e-07
4.49086e-07
4.13519e-07
3.80136e-07
3.48867e-07
3.19639e-07
2.92373e-07
2.66988e-07
2.43402e-07
2.21531e-07
2.0129e-07
1.82595e-07
1.65361e-07
1.49504e-07
1.34943e-07
1.21599e-07
1.09391e-07
9.82458e-08
8.80894e-08
7.88516e-08
7.04652e-08
6.28661e-08
5.59933e-08
4.97889e-08
4.41985e-08
3.91705e-08
3.46568e-08
3.06122e-08
2.69947e-08
2.37651e-08
2.08871e-08
1.83271e-08
1.60542e-08
1.40397e-08
1.22576e-08
1.06839e-08
9.29678e-09
8.07629e-09
7.00435e-09
6.06459e-09
5.24218e-09
4.52376e-09
3.8973e-09
3.35201e-09
2.87822e-09
2.46728e-09
2.1115e-09
1.80401e-09
1.53874e-09
1.31029e-09
1.11391e-09
9.45376e-10
8.0101e-10
6.7756e-10
5.72182e-10
4.82388e-10
4.0601e-10
3.41156e-10
2.86184e-10
2.39671e-10
2.00383e-10
1.67256e-10
1.39374e-10
1.15946e-10
9.62958e-11
7.98427e-11
6.60905e-11
5.46159e-11
4.50584e-11
3.71115e-11
3.05152e-11
2.50496e-11
2.05287e-11
1.67957e-11
1.37187e-11
1.11867e-11
9.1068e-12
7.40127e-12
6.00514e-12
4.86424e-12
3.93354e-12
3.17561e-12
2.55945e-12
2.05941e-12
1.65429e-12
1.32666e-12
1.06214e-12
8.48943e-13
6.7741e-13
5.39635e-13
4.29164e-13
3.40739e-13
2.70083e-13
2.13721e-13
1.68838e-13
1.33159e-13
1.04845e-13
8.24131e-14
6.46728e-14
5.06666e-14
3.96275e-14
3.09419e-14
2.41197e-14
1.87703e-14
1.4583e-14
1.13109e-14
8.7583e-15
6.77047e-15
5.22507e-15
4.02568e-15
3.09644e-15
2.37771e-15
1.82276e-15
1.395e-15
1.06585e-15
8.12998e-16
6.19096e-16
4.70653e-16
3.57205e-16
2.7065e-16
2.04726e-16
1.54601e-16
1.16553e-16
8.77221e-17
6.59125e-17
4.94423e-17
3.70255e-17
2.76803e-17
2.06587e-17
1.53918e-17
1.14475e-17
8.4982e-18
6.2961e-18
4.65382e-18
3.42988e-18
2.51753e-18
1.83617e-18
1.32475e-18
9.36763e-19
6.3633e-19
3.95096e-19
1.89766e-19
0
0
2.30819e-08
4.67234e-08
7.10455e-08
9.61731e-08
1.22234e-07
1.49358e-07
1.77677e-07
2.07325e-07
2.38435e-07
2.71142e-07
3.05579e-07
3.41877e-07
3.80166e-07
4.2057e-07
4.63211e-07
5.08203e-07
5.55655e-07
6.05669e-07
6.58336e-07
7.13738e-07
7.71944e-07
8.33013e-07
8.96989e-07
9.639e-07
1.03376e-06
1.10656e-06
1.18229e-06
1.2609e-06
1.34232e-06
1.42649e-06
1.51328e-06
1.60259e-06
1.69427e-06
1.78813e-06
1.88401e-06
1.98167e-06
2.0809e-06
2.18143e-06
2.28299e-06
2.38529e-06
2.48802e-06
2.59084e-06
2.69343e-06
2.79541e-06
2.89644e-06
2.99612e-06
3.09408e-06
3.18994e-06
3.28331e-06
3.37379e-06
3.46101e-06
3.54459e-06
3.62415e-06
3.69935e-06
3.76984e-06
3.8353e-06
3.89541e-06
3.94989e-06
3.99849e-06
4.04097e-06
4.07711e-06
4.10675e-06
4.12973e-06
4.14595e-06
4.15532e-06
4.1578e-06
4.15337e-06
4.14206e-06
4.12392e-06
4.09905e-06
4.06755e-06
4.0296e-06
3.98538e-06
3.93509e-06
3.87899e-06
3.81734e-06
3.75043e-06
3.67857e-06
3.60211e-06
3.52137e-06
3.43673e-06
3.34855e-06
3.25722e-06
3.16312e-06
3.06663e-06
2.96815e-06
2.86807e-06
2.76675e-06
2.66459e-06
2.56193e-06
2.45914e-06
2.35656e-06
2.2545e-06
2.15328e-06
2.05319e-06
1.9545e-06
1.85746e-06
1.76231e-06
1.66926e-06
1.5785e-06
1.49019e-06
1.40448e-06
1.32151e-06
1.24137e-06
1.16416e-06
1.08993e-06
1.01874e-06
9.50623e-07
8.85585e-07
8.23626e-07
7.64729e-07
7.08865e-07
6.5599e-07
6.0605e-07
5.58982e-07
5.14713e-07
4.73163e-07
4.34244e-07
3.97864e-07
3.63926e-07
3.3233e-07
3.02973e-07
2.75751e-07
2.50557e-07
2.27287e-07
2.05835e-07
1.86098e-07
1.67975e-07
1.51364e-07
1.36169e-07
1.22296e-07
1.09654e-07
9.81549e-08
8.7716e-08
7.82569e-08
6.97019e-08
6.19788e-08
5.50199e-08
4.87612e-08
4.31425e-08
3.81079e-08
3.36048e-08
2.95845e-08
2.60019e-08
2.28152e-08
1.99857e-08
1.7478e-08
1.52596e-08
1.33006e-08
1.15738e-08
1.00544e-08
8.71998e-09
7.55008e-09
6.52626e-09
5.6319e-09
4.85201e-09
4.17317e-09
3.58333e-09
3.07175e-09
2.62882e-09
2.24602e-09
1.91576e-09
1.63135e-09
1.38685e-09
1.17703e-09
9.97299e-10
8.43603e-10
7.12406e-10
6.00612e-10
5.05518e-10
4.24772e-10
3.5633e-10
2.98418e-10
2.49502e-10
2.08257e-10
1.73541e-10
1.44371e-10
1.19904e-10
9.9418e-11
8.22948e-11
6.80074e-11
5.61069e-11
4.62117e-11
3.79983e-11
3.11927e-11
2.55633e-11
2.0915e-11
1.70834e-11
1.39305e-11
1.13406e-11
9.2168e-12
7.47826e-12
6.05754e-12
4.89856e-12
3.95472e-12
3.18742e-12
2.56471e-12
2.06022e-12
1.65221e-12
1.32279e-12
1.05728e-12
8.43662e-13
6.7208e-13
5.34501e-13
4.24377e-13
3.3638e-13
2.66186e-13
2.10288e-13
1.65851e-13
1.30586e-13
1.02648e-13
8.0553e-14
6.31083e-14
4.93589e-14
3.85408e-14
3.00435e-14
2.33805e-14
1.81649e-14
1.40892e-14
1.09098e-14
8.43372e-15
6.50875e-15
5.01476e-15
3.85724e-15
2.96196e-15
2.27067e-15
1.73782e-15
1.32779e-15
1.01281e-15
7.71262e-16
5.8634e-16
4.45011e-16
3.37184e-16
2.55057e-16
1.92611e-16
1.4521e-16
1.09292e-16
8.21206e-17
6.16011e-17
4.61313e-17
3.44882e-17
2.574e-17
1.91779e-17
1.42635e-17
1.05888e-17
7.8451e-18
5.79884e-18
4.27381e-18
3.13702e-18
2.28801e-18
1.65076e-18
1.16731e-18
7.92942e-19
4.92339e-19
2.36474e-19
0
0
2.84947e-08
5.76801e-08
8.77059e-08
1.18726e-07
1.50898e-07
1.84382e-07
2.19342e-07
2.55941e-07
2.94347e-07
3.34723e-07
3.77235e-07
4.22044e-07
4.69309e-07
5.19187e-07
5.71825e-07
6.27365e-07
6.85943e-07
7.47682e-07
8.12697e-07
8.81086e-07
9.52938e-07
1.02832e-06
1.1073e-06
1.18989e-06
1.27613e-06
1.366e-06
1.45947e-06
1.55651e-06
1.65702e-06
1.76091e-06
1.86805e-06
1.9783e-06
2.09146e-06
2.20733e-06
2.32567e-06
2.44623e-06
2.56871e-06
2.69281e-06
2.81817e-06
2.94445e-06
3.07125e-06
3.19818e-06
3.32481e-06
3.45069e-06
3.57539e-06
3.69844e-06
3.81937e-06
3.93769e-06
4.05294e-06
4.16463e-06
4.27229e-06
4.37545e-06
4.47367e-06
4.5665e-06
4.65351e-06
4.7343e-06
4.8085e-06
4.87576e-06
4.93575e-06
4.98818e-06
5.03279e-06
5.06938e-06
5.09775e-06
5.11777e-06
5.12934e-06
5.13241e-06
5.12694e-06
5.11298e-06
5.09059e-06
5.05989e-06
5.02102e-06
4.97417e-06
4.91958e-06
4.85752e-06
4.78827e-06
4.71217e-06
4.62958e-06
4.54089e-06
4.4465e-06
4.34685e-06
4.24237e-06
4.13353e-06
4.02079e-06
3.90464e-06
3.78554e-06
3.66398e-06
3.54044e-06
3.41538e-06
3.28927e-06
3.16255e-06
3.03567e-06
2.90904e-06
2.78306e-06
2.65812e-06
2.53457e-06
2.41275e-06
2.29297e-06
2.17552e-06
2.06065e-06
1.94861e-06
1.8396e-06
1.7338e-06
1.63138e-06
1.53246e-06
1.43714e-06
1.34551e-06
1.25764e-06
1.17355e-06
1.09326e-06
1.01678e-06
9.4407e-07
8.75107e-07
8.09835e-07
7.48186e-07
6.90082e-07
6.35433e-07
5.8414e-07
5.36095e-07
4.91184e-07
4.49288e-07
4.10283e-07
3.74041e-07
3.40435e-07
3.09333e-07
2.80605e-07
2.54122e-07
2.29757e-07
2.07382e-07
1.86875e-07
1.68116e-07
1.50989e-07
1.35381e-07
1.21185e-07
1.08298e-07
9.66197e-08
8.60577e-08
7.65228e-08
6.79313e-08
6.02041e-08
5.32673e-08
4.70513e-08
4.14916e-08
3.65281e-08
3.21048e-08
2.81703e-08
2.46768e-08
2.15807e-08
1.88416e-08
1.64228e-08
1.42908e-08
1.24148e-08
1.07672e-08
9.32267e-09
8.05854e-09
6.95424e-09
5.99128e-09
5.15308e-09
4.42477e-09
3.79308e-09
3.24616e-09
2.77348e-09
2.36569e-09
2.0145e-09
1.71259e-09
1.4535e-09
1.23156e-09
1.04177e-09
8.79758e-10
7.41707e-10
6.24279e-10
5.24568e-10
4.40049e-10
3.68534e-10
3.08127e-10
2.57193e-10
2.14321e-10
1.78298e-10
1.48083e-10
1.22783e-10
1.01637e-10
8.39919e-11
6.92949e-11
5.70743e-11
4.69307e-11
3.85256e-11
3.15731e-11
2.58322e-11
2.11e-11
1.7206e-11
1.40072e-11
1.13841e-11
9.23686e-12
7.48211e-12
6.05063e-12
4.88486e-12
3.93713e-12
3.16799e-12
2.54485e-12
2.04088e-12
1.63398e-12
1.30603e-12
1.04216e-12
8.30216e-13
6.60273e-13
5.24241e-13
4.15541e-13
3.28831e-13
2.5978e-13
2.04887e-13
1.61324e-13
1.26811e-13
9.95159e-14
7.79654e-14
6.09798e-14
4.76152e-14
3.71176e-14
2.88861e-14
2.24426e-14
1.74073e-14
1.34792e-14
1.04201e-14
8.04185e-15
6.19603e-15
4.76591e-15
3.65976e-15
2.80565e-15
2.14728e-15
1.64066e-15
1.25148e-15
9.53019e-16
7.24526e-16
5.49897e-16
4.1666e-16
3.15179e-16
2.38016e-16
1.79444e-16
1.35059e-16
1.01483e-16
7.61265e-17
5.70097e-17
4.26216e-17
3.18107e-17
2.37012e-17
1.76279e-17
1.30867e-17
9.69583e-18
7.16693e-18
5.28218e-18
3.87721e-18
2.82792e-18
2.04032e-18
1.44279e-18
9.80083e-19
6.0854e-19
2.92287e-19
0
0
3.49721e-08
7.07919e-08
1.07643e-07
1.45714e-07
1.85199e-07
2.26295e-07
2.69201e-07
3.1412e-07
3.61255e-07
4.10809e-07
4.62983e-07
5.17976e-07
5.75984e-07
6.37197e-07
7.01798e-07
7.69962e-07
8.41852e-07
9.17622e-07
9.97411e-07
1.08134e-06
1.16952e-06
1.26204e-06
1.35896e-06
1.46032e-06
1.56615e-06
1.67644e-06
1.79116e-06
1.91024e-06
2.03359e-06
2.16109e-06
2.29257e-06
2.42786e-06
2.56674e-06
2.70893e-06
2.85416e-06
3.00211e-06
3.15242e-06
3.30471e-06
3.45856e-06
3.61352e-06
3.76914e-06
3.9249e-06
4.08029e-06
4.23478e-06
4.38781e-06
4.53882e-06
4.68721e-06
4.83242e-06
4.97385e-06
5.11091e-06
5.24303e-06
5.36964e-06
5.49016e-06
5.60408e-06
5.71086e-06
5.81001e-06
5.90107e-06
5.9836e-06
6.05722e-06
6.12156e-06
6.17632e-06
6.22122e-06
6.25604e-06
6.28061e-06
6.29481e-06
6.29857e-06
6.29187e-06
6.27474e-06
6.24727e-06
6.20959e-06
6.16189e-06
6.10441e-06
6.03742e-06
5.96126e-06
5.87628e-06
5.7829e-06
5.68155e-06
5.57271e-06
5.45689e-06
5.33459e-06
5.20638e-06
5.07282e-06
4.93447e-06
4.79193e-06
4.64578e-06
4.4966e-06
4.345e-06
4.19153e-06
4.03677e-06
3.88126e-06
3.72555e-06
3.57015e-06
3.41555e-06
3.26222e-06
3.1106e-06
2.9611e-06
2.81411e-06
2.66997e-06
2.529e-06
2.3915e-06
2.25772e-06
2.12789e-06
2.00219e-06
1.88079e-06
1.76381e-06
1.65136e-06
1.54352e-06
1.44032e-06
1.34178e-06
1.24792e-06
1.15869e-06
1.07405e-06
9.93944e-07
9.18284e-07
8.46973e-07
7.79903e-07
7.16951e-07
6.57985e-07
6.02866e-07
5.51446e-07
5.03574e-07
4.59094e-07
4.17847e-07
3.79675e-07
3.44416e-07
3.11913e-07
2.82007e-07
2.54545e-07
2.29376e-07
2.06352e-07
1.8533e-07
1.66174e-07
1.4875e-07
1.32931e-07
1.18598e-07
1.05634e-07
9.39304e-08
8.33849e-08
7.39003e-08
6.53857e-08
5.7756e-08
5.09317e-08
4.48391e-08
3.94097e-08
3.45802e-08
3.0292e-08
2.64915e-08
2.31293e-08
2.01602e-08
1.75431e-08
1.52403e-08
1.32177e-08
1.14446e-08
9.89277e-09
8.53717e-09
7.35508e-09
6.32612e-09
5.43206e-09
4.6566e-09
3.9852e-09
3.40494e-09
2.90432e-09
2.47318e-09