# vtk DataFile Version 3.0
2D field
ASCII
DATASET STRUCTURED_POINTS
DIMENSIONS 257 257 1
ORIGIN 0 0 0
SPACING 0.00390625 0.00390625 1
POINT_DATA 66049
SCALARS temperature double 1
LOOKUP_TABLE default
0
0
0
0
0
0
0
0
0
0
0
0
0
0
0
0
0
0
0
0
0
0
0
0
0
0
0
0
0
0
0
0
0
0
0
0
0
0
0
0
0
0
0
0
0
0
0
0
0
0
0
0
0
0
0
0
0
0
0
0
0
0
0
0
0
0
0
0
0
0
0
0
0
0
0
0
0
0
0
0
0
0
0
0
0
0
0
0
0
0
0
0
0
0
0
0
0
0
0
0
0
0
0
0
0
0
0
0
0
0
0
0
0
0
0
0
0
0
0
0
0
0
0
0
0
0
0
0
0
0
0
0
0
0
0
0
0
0
0
0
0
0
0
0
0
0
0
0
0
0
0
0
0
0
0
0
0
0
0
0
0
0
0
0
0
0
0
0
0
0
0
0
0
0
0
0
0
0
0
0
0
0
0
0
0
0
0
0
0
0
0
0
0
0
0
0
0
0
0
0
0
0
0
0
0
0
0
0
0
0
0
0
0
0
0
0
0
0
0
0
0
0
0
0
0
0
0
0
0
0
0
0
0
0
0
0
0
0
0
0
0
0
0
0
0
0
0
0
0
0
0
0
0
0
0
0
0
0
1.47768e-10
2.99465e-10
4.56231e-10
6.19253e-10
7.89765e-10
9.6905e-10
1.15844e-09
1.35931e-09
1.57307e-09
1.8012e-09
2.04517e-09
2.3065e-09
2.58671e-09
2.88733e-09
3.20987e-09
3.55581e-09
3.92661e-09
4.32365e-09
4.74825e-09
5.20165e-09
5.68498e-09
6.19923e-09
6.74529e-09
7.32387e-09
7.93551e-09
8.58059e-09
9.25926e-09
9.97148e-09
1.0717e-08
1.14952e-08
1.23055e-08
1.31467e-08
1.40175e-08
1.49165e-08
1.58417e-08
1.67911e-08
1.77621e-08
1.87522e-08
1.97583e-08
2.07772e-08
2.18056e-08
2.28396e-08
2.38754e-08
2.49089e-08
2.59358e-08
2.69516e-08
2.79519e-08
2.89321e-08
2.98875e-08
3.08134e-08
3.17053e-08
3.25585e-08
3.33687e-08
3.41314e-08
3.48426e-08
3.54984e-08
3.60951e-08
3.66293e-08
3.70979e-08
3.74984e-08
3.78283e-08
3.80857e-08
3.82691e-08
3.83774e-08
3.841e-08
3.83667e-08
3.82478e-08
3.80539e-08
3.77861e-08
3.74462e-08
3.7036e-08
3.65579e-08
3.60147e-08
3.54095e-08
3.47457e-08
3.40269e-08
3.32573e-08
3.24408e-08
3.15818e-08
3.06848e-08
2.97545e-08
2.87953e-08
2.7812e-08
2.68092e-08
2.57915e-08
2.47634e-08
2.37293e-08
2.26935e-08
2.166e-08
2.06327e-08
1.96154e-08
1.86113e-08
1.76238e-08
1.66557e-08
1.57096e-08
1.4788e-08
1.3893e-08
1.30264e-08
1.21896e-08
1.13841e-08
1.06109e-08
9.87055e-09
9.16375e-09
8.49075e-09
7.85163e-09
7.24628e-09
6.67438e-09
6.13546e-09
5.62892e-09
5.15399e-09
4.7098e-09
4.29539e-09
3.90971e-09
3.55162e-09
3.21995e-09
2.91348e-09
2.63097e-09
2.37116e-09
2.13279e-09
1.91458e-09
1.7153e-09
1.53373e-09
1.36867e-09
1.21895e-09
1.08347e-09
9.61143e-10
8.5094e-10
7.51884e-10
6.63046e-10
5.83548e-10
5.12566e-10
4.49328e-10
3.93114e-10
3.43252e-10
2.99122e-10
2.60151e-10
2.25809e-10
1.95613e-10
1.6912e-10
1.45926e-10
1.25664e-10
1.08001e-10
9.26374e-11
7.93022e-11
6.77523e-11
5.77701e-11
4.91612e-11
4.17524e-11
3.539e-11
2.99379e-11
2.52755e-11
2.12971e-11
1.79094e-11
1.50307e-11
1.25898e-11
1.05245e-11
8.7805e-12
7.31104e-12
6.07545e-12
5.03869e-12
4.17059e-12
3.44521e-12
2.84037e-12
2.33708e-12
1.91916e-12
1.57286e-12
1.28649e-12
1.05018e-12
8.5558e-13
6.9566e-13
5.64511e-13
4.57181e-13
3.69524e-13
2.98083e-13
2.39977e-13
1.92816e-13
1.54616e-13
1.23739e-13
9.88321e-14
7.87822e-14
6.26755e-14
4.9763e-14
3.94325e-14
3.11846e-14
2.46131e-14
1.93879e-14
1.52418e-14
1.19585e-14
9.36396e-15
7.31779e-15
5.70742e-15
4.44261e-15
3.45124e-15
2.67578e-15
2.07045e-15
1.59889e-15
1.23228e-15
9.47853e-16
7.27629e-16
5.57465e-16
4.26249e-16
3.25273e-16
2.47725e-16
1.88292e-16
1.42834e-16
1.08136e-16
8.17043e-17
6.16111e-17
4.63673e-17
3.48259e-17
2.61054e-17
1.95298e-17
1.45815e-17
1.08654e-17
8.08025e-18
5.99712e-18
4.44221e-18
3.28392e-18
2.42284e-18
1.784e-18
1.31099e-18
9.61491e-19
7.03765e-19
5.14099e-19
3.74804e-19
2.72708e-19
1.9803e-19
1.43516e-19
1.03802e-19
7.4929e-20
5.39797e-20
3.88105e-20
2.78486e-20
1.99432e-20
1.42536e-20
1.0167e-20
7.23759e-21
5.14202e-21
3.64594e-21
2.58001e-21
1.82209e-21
1.28426e-21
9.03371e-22
6.34169e-22
4.44279e-22
3.10591e-22
2.16642e-22
1.50722e-22
1.04519e-22
7.21333e-23
4.93796e-23
3.3277e-23
2.16848e-23
1.30349e-23
6.13229e-24
0
0
3.04152e-10
6.1639e-10
9.39062e-10
1.27461e-09
1.62558e-09
1.9946e-09
2.38442e-09
2.79786e-09
3.23786e-09
3.70741e-09
4.20957e-09
4.74747e-09
5.32422e-09
5.94298e-09
6.60685e-09
7.3189e-09
8.08211e-09
8.89933e-09
9.77328e-09
1.07065e-08
1.17013e-08
1.27598e-08
1.38837e-08
1.50746e-08
1.63335e-08
1.76613e-08
1.90581e-08
2.05241e-08
2.20585e-08
2.36603e-08
2.5328e-08
2.70594e-08
2.88519e-08
3.07022e-08
3.26065e-08
3.45605e-08
3.65591e-08
3.85969e-08
4.06678e-08
4.2765e-08
4.48816e-08
4.70099e-08
4.91419e-08
5.1269e-08
5.33825e-08
5.54734e-08
5.75323e-08
5.95497e-08
6.15161e-08
6.34219e-08
6.52576e-08
6.70137e-08
6.86812e-08
7.02511e-08
7.1715e-08
7.30647e-08
7.42928e-08
7.53923e-08
7.6357e-08
7.71812e-08
7.78602e-08
7.839e-08
7.87675e-08
7.89905e-08
7.90576e-08
7.89685e-08
7.87237e-08
7.83246e-08
7.77736e-08
7.70738e-08
7.62296e-08
7.52456e-08
7.41276e-08
7.28819e-08
7.15156e-08
7.00363e-08
6.84521e-08
6.67716e-08
6.50036e-08
6.31575e-08
6.12425e-08
5.92683e-08
5.72444e-08
5.51804e-08
5.30858e-08
5.09697e-08
4.88413e-08
4.67094e-08
4.45822e-08
4.24678e-08
4.03738e-08
3.83072e-08
3.62746e-08
3.4282e-08
3.23348e-08
3.04379e-08
2.85958e-08
2.6812e-08
2.50898e-08
2.34319e-08
2.18402e-08
2.03165e-08
1.88617e-08
1.74765e-08
1.6161e-08
1.4915e-08
1.37379e-08
1.26287e-08
1.1586e-08
1.06085e-08
9.69424e-09
8.84127e-09
8.04741e-09
7.31035e-09
6.62768e-09
5.99688e-09
5.4154e-09
4.88063e-09
4.38998e-09
3.94085e-09
3.53067e-09
3.15694e-09
2.81718e-09
2.50903e-09
2.23016e-09
1.97837e-09
1.75153e-09
1.54764e-09
1.36479e-09
1.20115e-09
1.05505e-09
9.24883e-10
8.09174e-10
7.06541e-10
6.15707e-10
5.35489e-10
4.64801e-10
4.02647e-10
3.48115e-10
3.00373e-10
2.58666e-10
2.2231e-10
1.90685e-10
1.63236e-10
1.39462e-10
1.18915e-10
1.01194e-10
8.59441e-11
7.28478e-11
6.1625e-11
5.20281e-11
4.38388e-11
3.68654e-11
3.09399e-11
2.59155e-11
2.16641e-11
1.80743e-11
1.50495e-11
1.25061e-11
1.0372e-11
8.58505e-12
7.0919e-12
5.84686e-12
4.81085e-12
3.95058e-12
3.23772e-12
2.64825e-12
2.1618e-12
1.76122e-12
1.43203e-12
1.16206e-12
9.41119e-13
7.60677e-13
6.13614e-13
4.94004e-13
3.96921e-13
3.18286e-13
2.54724e-13
2.03452e-13
1.62179e-13
1.29022e-13
1.02441e-13
8.1175e-14
6.41963e-14
5.06684e-14
3.9912e-14
3.13768e-14
2.4618e-14
1.92768e-14
1.50646e-14
1.17494e-14
9.1457e-15
7.10485e-15
5.50848e-15
4.26234e-15
3.29156e-15
2.53685e-15
1.95131e-15
1.49795e-15
1.14764e-15
8.77512e-16
6.69636e-16
5.09992e-16
3.87637e-16
2.94054e-16
2.22621e-16
1.68207e-16
1.26841e-16
9.5458e-17
7.16975e-17
5.37445e-17
4.0207e-17
3.00198e-17
2.23693e-17
1.66354e-17
1.23468e-17
9.14557e-18
6.76093e-18
4.98815e-18
3.67291e-18
2.6991e-18
1.97954e-18
1.44893e-18
1.05845e-18
7.71663e-19
5.61466e-19
4.07715e-19
2.9548e-19
2.13715e-19
1.5427e-19
1.11138e-19
7.99066e-20
5.73376e-20
4.10614e-20
2.9347e-20
2.0933e-20
1.49017e-20
1.05871e-20
7.5068e-21
5.31214e-21
3.75162e-21
2.64425e-21
1.86002e-21
1.30575e-21
9.14768e-22
6.39508e-22
4.46067e-22
3.1034e-22
2.15207e-22
1.48525e-22
1.01675e-22
6.8519e-23
4.46502e-23
2.68395e-23
1.26268e-23
0
0
4.78197e-10
9.69107e-10
1.47642e-09
2.00398e-09
2.55578e-09
3.13597e-09
3.74885e-09
4.39888e-09
5.09065e-09
5.82888e-09
6.6184e-09
7.46408e-09
8.37086e-09
9.34367e-09
1.03874e-08
1.15069e-08
1.27068e-08
1.39916e-08
1.53657e-08
1.68329e-08
1.83969e-08
2.0061e-08
2.18281e-08
2.37003e-08
2.56796e-08
2.7767e-08
2.99632e-08
3.22679e-08
3.46802e-08
3.71986e-08
3.98205e-08
4.25425e-08
4.53606e-08
4.82696e-08
5.12635e-08
5.43354e-08
5.74776e-08
6.06813e-08
6.3937e-08
6.72343e-08
7.05619e-08
7.39079e-08
7.72597e-08
8.06038e-08
8.39267e-08
8.72138e-08
9.04507e-08
9.36224e-08
9.67139e-08
9.97101e-08
1.02596e-07
1.05357e-07
1.07979e-07
1.10447e-07
1.12748e-07
1.1487e-07
1.16801e-07
1.18529e-07
1.20046e-07
1.21342e-07
1.22409e-07
1.23242e-07
1.23836e-07
1.24186e-07
1.24292e-07
1.24152e-07
1.23767e-07
1.2314e-07
1.22273e-07
1.21173e-07
1.19846e-07
1.18299e-07
1.16541e-07
1.14583e-07
1.12435e-07
1.10109e-07
1.07619e-07
1.04977e-07
1.02197e-07
9.92948e-08
9.62843e-08
9.31805e-08
8.99987e-08
8.67538e-08
8.34607e-08
8.01339e-08
7.67878e-08
7.3436e-08
7.00917e-08
6.67676e-08
6.34755e-08
6.02265e-08
5.70309e-08
5.38981e-08
5.08368e-08
4.78546e-08
4.49584e-08
4.2154e-08
3.94464e-08
3.68398e-08
3.43375e-08
3.19419e-08
2.96547e-08
2.74769e-08
2.54087e-08
2.34498e-08
2.15991e-08
1.98551e-08
1.82159e-08
1.66791e-08
1.52417e-08
1.39006e-08
1.26525e-08
1.14937e-08
1.04204e-08
9.42861e-09
8.51439e-09
7.67361e-09
6.90219e-09
6.19605e-09
5.55116e-09
4.96356e-09
4.42939e-09
3.94489e-09
3.50644e-09
3.11056e-09
2.75392e-09
2.43335e-09
2.14585e-09
1.88857e-09
1.65885e-09
1.4542e-09
1.27227e-09
1.11091e-09
9.68087e-10
8.41961e-10
7.3082e-10
6.33095e-10
5.47353e-10
4.72288e-10
4.06712e-10
3.49548e-10
2.99825e-10
2.56666e-10
2.19285e-10
1.86978e-10
1.59115e-10
1.35136e-10
1.14544e-10
9.68982e-11
8.18084e-11
6.89318e-11
5.79671e-11
4.86501e-11
4.07499e-11
3.4065e-11
2.84204e-11
2.36642e-11
1.9665e-11
1.63093e-11
1.34995e-11
1.11516e-11
9.1939e-12
7.56486e-12
6.21214e-12
5.09122e-12
4.1643e-12
3.3994e-12
2.7695e-12
2.25185e-12
1.82734e-12
1.47991e-12
1.19617e-12
9.64918e-13
7.76832e-13
6.2417e-13
5.00516e-13
4.00564e-13
3.19938e-13
2.55034e-13
2.02895e-13
1.61095e-13
1.27654e-13
1.00954e-13
7.96804e-14
6.27652e-14
4.93431e-14
3.87143e-14
3.03149e-14
2.36908e-14
1.84775e-14
1.43828e-14
1.11734e-14
8.66291e-15
6.70319e-15
5.17652e-15
3.98963e-15
3.06879e-15
2.3558e-15
1.80489e-15
1.38006e-15
1.05314e-15
8.02071e-16
6.09646e-16
4.62467e-16
3.50124e-16
2.64546e-16
1.99489e-16
1.50133e-16
1.12764e-16
8.45281e-17
6.3237e-17
4.72149e-17
3.51824e-17
2.61643e-17
1.94192e-17
1.43844e-17
1.06338e-17
7.84557e-18
5.77694e-18
4.2453e-18
3.11356e-18
2.27899e-18
1.66482e-18
1.21374e-18
8.83132e-19
6.413e-19
4.64766e-19
3.36159e-19
2.42657e-19
1.74815e-19
1.2569e-19
9.01901e-20
6.45885e-20
4.61624e-20
3.29275e-20
2.34404e-20
1.66536e-20
1.18084e-20
8.35615e-21
5.90145e-21
4.15954e-21
2.92592e-21
2.05403e-21
1.439e-21
1.006e-21
7.01708e-22
4.88198e-22
3.38545e-22
2.33648e-22
1.59948e-22
1.0779e-22
7.02416e-23
4.22228e-23
1.98639e-23
0
0
6.79827e-10
1.37773e-09
2.09895e-09
2.84895e-09
3.63341e-09
4.45822e-09
5.32952e-09
6.25362e-09
7.23707e-09
8.28657e-09
9.40896e-09
1.06112e-08
1.19003e-08
1.32833e-08
1.47671e-08
1.63585e-08
1.80643e-08
1.98909e-08
2.18442e-08
2.393e-08
2.61534e-08
2.85191e-08
3.10311e-08
3.36926e-08
3.65063e-08
3.94738e-08
4.25958e-08
4.58721e-08
4.93015e-08
5.28815e-08
5.66087e-08
6.04783e-08
6.44844e-08
6.86197e-08
7.28757e-08
7.72426e-08
8.17094e-08
8.62637e-08
9.08919e-08
9.55791e-08
1.0031e-07
1.05066e-07
1.09831e-07
1.14585e-07
1.19308e-07
1.23981e-07
1.28583e-07
1.33091e-07
1.37486e-07
1.41745e-07
1.45848e-07
1.49773e-07
1.53499e-07
1.57008e-07
1.60279e-07
1.63296e-07
1.66041e-07
1.68498e-07
1.70654e-07
1.72496e-07
1.74013e-07
1.75198e-07
1.76041e-07
1.7654e-07
1.7669e-07
1.76491e-07
1.75944e-07
1.75052e-07
1.7382e-07
1.72257e-07
1.7037e-07
1.68171e-07
1.65672e-07
1.62888e-07
1.59835e-07
1.56529e-07
1.52989e-07
1.49233e-07
1.45282e-07
1.41156e-07
1.36876e-07
1.32464e-07
1.27941e-07
1.23328e-07
1.18647e-07
1.13918e-07
1.09161e-07
1.04396e-07
9.96422e-08
9.49168e-08
9.02369e-08
8.56182e-08
8.10754e-08
7.6622e-08
7.22701e-08
6.80307e-08
6.39135e-08
5.99268e-08
5.60778e-08
5.23723e-08
4.8815e-08
4.54094e-08
4.2158e-08
3.9062e-08
3.61219e-08
3.33371e-08
3.07061e-08
2.8227e-08
2.58967e-08
2.37118e-08
2.16684e-08
1.97619e-08
1.79875e-08
1.63402e-08
1.48143e-08
1.34044e-08
1.21047e-08
1.09094e-08
9.81273e-09
8.80885e-09
7.89203e-09
7.05667e-09
6.29725e-09
5.60845e-09
4.98512e-09
4.42231e-09
3.91529e-09
3.45954e-09
3.0508e-09
2.68503e-09
2.35845e-09
2.06749e-09
1.80884e-09
1.57943e-09
1.37638e-09
1.19706e-09
1.03905e-09
9.00113e-10
7.78211e-10
6.71488e-10
5.78256e-10
4.96983e-10
4.26288e-10
3.64927e-10
3.1178e-10
2.65846e-10
2.26232e-10
1.9214e-10
1.62862e-10
1.37773e-10
1.16318e-10
9.80103e-11
8.24205e-11
6.91734e-11
5.79406e-11
4.84359e-11
4.04102e-11
3.36477e-11
2.79614e-11
2.31901e-11
1.91949e-11
1.58566e-11
1.30729e-11
1.07566e-11
8.83321e-12
7.23937e-12
5.92138e-12
4.83376e-12
3.9381e-12
3.20204e-12
2.59841e-12
2.1044e-12
1.70093e-12
1.3721e-12
1.10465e-12
8.87572e-13
7.11739e-13
5.6961e-13
4.5496e-13
3.62668e-13
2.88525e-13
2.29085e-13
1.81531e-13
1.43563e-13
1.13311e-13
8.92573e-14
7.01703e-14
5.50556e-14
4.31111e-14
3.36911e-14
2.62773e-14
2.04543e-14
1.58901e-14
1.23199e-14
9.53298e-15
7.36187e-15
5.67395e-15
4.36438e-15
3.3504e-15
2.56691e-15
1.96274e-15
1.4978e-15
1.14073e-15
8.67061e-16
6.57742e-16
4.97966e-16
3.76255e-16
2.83728e-16
2.13531e-16
1.60383e-16
1.20225e-16
8.99428e-17
6.71549e-17
5.00411e-17
3.72146e-17
2.7621e-17
2.04598e-17
1.51252e-17
1.11594e-17
8.21707e-18
6.03853e-18
4.42876e-18
3.24169e-18
2.36809e-18
1.72648e-18
1.25622e-18
9.12228e-19
6.61119e-19
4.78182e-19
3.45179e-19
2.48675e-19
1.78796e-19
1.28298e-19
9.18798e-20
6.56685e-20
4.68415e-20
3.33458e-20
2.36913e-20
1.67986e-20
1.18875e-20
8.39553e-21
5.9175e-21
4.16255e-21
2.92218e-21
2.04722e-21
1.43122e-21
9.98314e-22
6.9456e-22
4.81654e-22
3.32418e-22
2.27564e-22
1.53358e-22
9.99367e-23
6.00731e-23
2.82618e-23
0
0
9.20324e-10
1.86511e-09
2.84148e-09
3.8568e-09
4.91877e-09
6.03537e-09
7.21489e-09
8.4659e-09
9.79724e-09
1.1218e-08
1.27374e-08
1.43649e-08
1.611e-08
1.79822e-08
1.99909e-08
2.21453e-08
2.44545e-08
2.69271e-08
2.95713e-08
3.23948e-08
3.54047e-08
3.86071e-08
4.20076e-08
4.56106e-08
4.94194e-08
5.34364e-08
5.76626e-08
6.20977e-08
6.674e-08
7.15862e-08
7.66316e-08
8.18698e-08
8.72927e-08
9.28906e-08
9.86518e-08
1.04563e-07
1.1061e-07
1.16775e-07
1.2304e-07
1.29385e-07
1.35788e-07
1.42227e-07
1.48677e-07
1.55112e-07
1.61506e-07
1.67831e-07
1.7406e-07
1.80163e-07
1.86112e-07
1.91878e-07
1.97431e-07
2.02744e-07
2.07789e-07
2.12538e-07
2.16967e-07
2.2105e-07
2.24765e-07
2.28092e-07
2.3101e-07
2.33504e-07
2.35558e-07
2.37161e-07
2.38303e-07
2.38978e-07
2.39181e-07
2.38912e-07
2.38171e-07
2.36964e-07
2.35297e-07
2.33181e-07
2.30626e-07
2.2765e-07
2.24268e-07
2.205e-07
2.16366e-07
2.11891e-07
2.07099e-07
2.02015e-07
1.96666e-07
1.91082e-07
1.85288e-07
1.79316e-07
1.73193e-07
1.66949e-07
1.60612e-07
1.54211e-07
1.47772e-07
1.41322e-07
1.34886e-07
1.2849e-07
1.22155e-07
1.15903e-07
1.09753e-07
1.03725e-07
9.78336e-08
9.20949e-08
8.65215e-08
8.11248e-08
7.59144e-08
7.08983e-08
6.60828e-08
6.14727e-08
5.70712e-08
5.28802e-08
4.89001e-08
4.51302e-08
4.15687e-08
3.82126e-08
3.5058e-08
3.21003e-08
2.9334e-08
2.67532e-08
2.43512e-08
2.21211e-08
2.00554e-08
1.81468e-08
1.63873e-08
1.47692e-08
1.32845e-08
1.19255e-08
1.06844e-08
9.55345e-09
8.52537e-09
7.59289e-09
6.74903e-09
5.9871e-09
5.30069e-09
4.68369e-09
4.13034e-09
3.63516e-09
3.19302e-09
2.79911e-09
2.44895e-09
2.13835e-09
1.86346e-09
1.62069e-09
1.40677e-09
1.21867e-09
1.05363e-09
9.09138e-10
7.82912e-10
6.72878e-10
5.77166e-10
4.94088e-10
4.22133e-10
3.59943e-10
3.06309e-10
2.6015e-10
2.20511e-10
1.86542e-10
1.57493e-10
1.32705e-10
1.11597e-10
9.36612e-11
7.84523e-11
6.55831e-11
5.47165e-11
4.55601e-11
3.78609e-11
3.14005e-11
2.5991e-11
2.14708e-11
1.77017e-11
1.45653e-11
1.19609e-11
9.80279e-12
8.01815e-12
6.54544e-12
5.33265e-12
4.33597e-12
3.5186e-12
2.84966e-12
2.30332e-12
1.85805e-12
1.49588e-12
1.20193e-12
9.63826e-13
7.71362e-13
6.16108e-13
4.91129e-13
3.90726e-13
3.10234e-13
2.45836e-13
1.9442e-13
1.53453e-13
1.20878e-13
9.50298e-14
7.45609e-14
5.83851e-14
4.5628e-14
3.55876e-14
2.77017e-14
2.15205e-14
1.66854e-14
1.2911e-14
9.97064e-15
7.68465e-15
5.91103e-15
4.53776e-15
3.47663e-15
2.65836e-15
2.02865e-15
1.54504e-15
1.17439e-15
8.90882e-16
6.74478e-16
5.09628e-16
3.84306e-16
2.89228e-16
2.1724e-16
1.62847e-16
1.2183e-16
9.09642e-17
6.77834e-17
5.04097e-17
3.74147e-17
2.77147e-17
2.04887e-17
1.51167e-17
1.1131e-17
8.18001e-18
5.99942e-18
4.39139e-18
3.20799e-18
2.33884e-18
1.70179e-18
1.2358e-18
8.95632e-19
6.47809e-19
4.6763e-19
3.36895e-19
2.42228e-19
1.73816e-19
1.24478e-19
8.89682e-20
6.34618e-20
4.5178e-20
3.2098e-20
2.27597e-20
1.61061e-20
1.1375e-20
8.01762e-21
5.6399e-21
3.95933e-21
2.77386e-21
1.93924e-21
1.35268e-21
9.41116e-22
6.52638e-22
4.50429e-22
3.08354e-22
2.07806e-22
1.35418e-22
8.1402e-23
3.82962e-23
0
0
1.21287e-09
2.45799e-09
3.74471e-09
5.08277e-09
6.48231e-09
7.95384e-09
9.50829e-09
1.11569e-08
1.29115e-08
1.47838e-08
1.67862e-08
1.8931e-08
2.12308e-08
2.3698e-08
2.63451e-08
2.91843e-08
3.22274e-08
3.54858e-08
3.89704e-08
4.26913e-08
4.66577e-08
5.08779e-08
5.53591e-08
6.0107e-08
6.51263e-08
7.04199e-08
7.59892e-08
8.18337e-08
8.79512e-08
9.43375e-08
1.00986e-07
1.07889e-07
1.15035e-07
1.22412e-07
1.30004e-07
1.37794e-07
1.45762e-07
1.53886e-07
1.62141e-07
1.70503e-07
1.78941e-07
1.87425e-07
1.95925e-07
2.04405e-07
2.1283e-07
2.21166e-07
2.29374e-07
2.37416e-07
2.45256e-07
2.52853e-07
2.60171e-07
2.67172e-07
2.7382e-07
2.80079e-07
2.85914e-07
2.91295e-07
2.96191e-07
3.00575e-07
3.0442e-07
3.07706e-07
3.10413e-07
3.12526e-07
3.14031e-07
3.1492e-07
3.15188e-07
3.14833e-07
3.13857e-07
3.12267e-07
3.1007e-07
3.07281e-07
3.03916e-07
2.99994e-07
2.95537e-07
2.90571e-07
2.85125e-07
2.79228e-07
2.72913e-07
2.66214e-07
2.59166e-07
2.51806e-07
2.44173e-07
2.36302e-07
2.28234e-07
2.20006e-07
2.11656e-07
2.0322e-07
1.94735e-07
1.86235e-07
1.77755e-07
1.69326e-07
1.60978e-07
1.52739e-07
1.44635e-07
1.36691e-07
1.28928e-07
1.21366e-07
1.14021e-07
1.06909e-07
1.00043e-07
9.34329e-08
8.70871e-08
8.10119e-08
7.52116e-08
6.96886e-08
6.44436e-08
5.94756e-08
5.47822e-08
5.03594e-08
4.62022e-08
4.23044e-08
3.86589e-08
3.52578e-08
3.20923e-08
2.91533e-08
2.64311e-08
2.39158e-08
2.1597e-08
1.94646e-08
1.7508e-08
1.5717e-08
1.40813e-08
1.25909e-08
1.12359e-08
1.0007e-08
8.8949e-09
7.89075e-09
6.98611e-09
6.17297e-09
5.44368e-09
4.79107e-09
4.20836e-09
3.68921e-09
3.22771e-09
2.81836e-09
2.45606e-09
2.1361e-09
1.85415e-09
1.60624e-09
1.38872e-09
1.19828e-09
1.03192e-09
8.86891e-10
7.60741e-10
6.51243e-10
5.56404e-10
4.74435e-10
4.03742e-10
3.42904e-10
2.90656e-10
2.45883e-10
2.07595e-10
1.74922e-10
1.471e-10
1.23459e-10
1.03412e-10
8.64489e-11
7.21254e-11
6.00561e-11
4.99075e-11
4.13919e-11
3.42613e-11
2.8303e-11
2.33346e-11
1.92003e-11
1.57673e-11
1.29224e-11
1.05699e-11
8.62858e-12
7.02986e-12
5.71601e-12
4.63852e-12
3.75669e-12
3.03648e-12
2.44949e-12
1.97206e-12
1.58454e-12
1.27065e-12
1.01693e-12
8.12253e-13
6.4749e-13
5.15126e-13
4.0901e-13
3.2411e-13
2.56325e-13
2.02315e-13
1.5937e-13
1.25291e-13
9.8305e-14
7.69785e-14
6.01592e-14
4.69217e-14
3.65245e-14
2.83749e-14
2.2e-14
1.70235e-14
1.31467e-14
1.01326e-14
7.79406e-15
5.98337e-15
4.58423e-15
3.5053e-15
2.675e-15
2.03732e-15
1.54858e-15
1.17475e-15
8.89403e-16
6.7203e-16
5.06776e-16
3.81402e-16
2.86475e-16
2.14748e-16
1.60661e-16
1.19958e-16
8.93895e-17
6.64785e-17
4.93417e-17
3.65498e-17
2.70205e-17
1.99361e-17
1.46799e-17
1.07881e-17
7.91236e-18
5.79166e-18
4.23095e-18
3.08468e-18
2.24451e-18
1.62993e-18
1.18128e-18
8.54427e-19
6.16786e-19
4.44356e-19
3.19496e-19
2.29264e-19
1.64189e-19
1.17352e-19
8.37091e-20
5.95926e-20
4.23398e-20
3.00221e-20
2.12457e-20
1.5005e-20
1.05763e-20
7.43987e-21
5.22301e-21
3.65922e-21
2.55823e-21
1.78447e-21
1.24154e-21
8.60985e-22
5.94229e-22
4.06801e-22
2.74154e-22
1.78656e-22
1.07394e-22
5.05245e-23
0
0
1.57316e-09
3.18815e-09
4.85709e-09
6.59264e-09
8.40791e-09
1.03166e-08
1.23327e-08
1.44711e-08
1.67468e-08
1.91753e-08
2.17725e-08
2.45544e-08
2.75372e-08
3.07373e-08
3.41706e-08
3.7853e-08
4.17999e-08
4.60261e-08
5.05456e-08
5.53715e-08
6.05159e-08
6.59895e-08
7.18014e-08
7.79594e-08
8.44693e-08
9.1335e-08
9.85581e-08
1.06138e-07
1.14072e-07
1.22355e-07
1.30978e-07
1.39931e-07
1.49199e-07
1.58766e-07
1.68613e-07
1.78716e-07
1.8905e-07
1.99586e-07
2.10293e-07
2.21137e-07
2.32081e-07
2.43085e-07
2.54107e-07
2.65106e-07
2.76033e-07
2.86844e-07
2.97489e-07
3.07919e-07
3.18086e-07
3.2794e-07
3.37431e-07
3.46511e-07
3.55132e-07
3.63249e-07
3.70818e-07
3.77796e-07
3.84146e-07
3.89831e-07
3.94819e-07
3.99081e-07
4.02592e-07
4.05331e-07
4.07284e-07
4.08437e-07
4.08784e-07
4.08324e-07
4.07059e-07
4.04996e-07
4.02148e-07
3.98531e-07
3.94166e-07
3.89079e-07
3.833e-07
3.7686e-07
3.69797e-07
3.62149e-07
3.53959e-07
3.4527e-07
3.3613e-07
3.26585e-07
3.16685e-07
3.06478e-07
2.96014e-07
2.85343e-07
2.74513e-07
2.63573e-07
2.52568e-07
2.41545e-07
2.30547e-07
2.19615e-07
2.08788e-07
1.98102e-07
1.87592e-07
1.77289e-07
1.67221e-07
1.57412e-07
1.47887e-07
1.38663e-07
1.29758e-07
1.21185e-07
1.12954e-07
1.05075e-07
9.75521e-08
9.03888e-08
8.35861e-08
7.71427e-08
7.10553e-08
6.53189e-08
5.9927e-08
5.48715e-08
5.01433e-08
4.57319e-08
4.16262e-08
3.78143e-08
3.42835e-08
3.1021e-08
2.80135e-08
2.52475e-08
2.27097e-08
2.03867e-08
1.82651e-08
1.63319e-08
1.45745e-08
1.29805e-08
1.15379e-08
1.02355e-08
9.06205e-09
8.00731e-09
7.06135e-09
6.21483e-09
5.45898e-09
4.78558e-09
4.18695e-09
3.65597e-09
3.18601e-09
2.77097e-09
2.40524e-09
2.08365e-09
1.80149e-09
1.55446e-09
1.33865e-09
1.15052e-09
9.86877e-10
8.44835e-10
7.21807e-10
6.15476e-10
5.2377e-10
4.44848e-10
3.7707e-10
3.18987e-10
2.69317e-10
2.26931e-10
1.90838e-10
1.60169e-10
1.34162e-10
1.12156e-10
9.35734e-11
7.79155e-11
6.47494e-11
5.37016e-11
4.44507e-11
3.67207e-11
3.02749e-11
2.49111e-11
2.04571e-11
1.67662e-11
1.37141e-11
1.11953e-11
9.12109e-12
7.41646e-12
6.01847e-12
4.87433e-12
3.93989e-12
3.17828e-12
2.55882e-12
2.05602e-12
1.64875e-12
1.31953e-12
1.05396e-12
8.40176e-13
6.68428e-13
5.30736e-13
4.20573e-13
3.32616e-13
2.62533e-13
2.06807e-13
1.62586e-13
1.27568e-13
9.98942e-14
7.80687e-14
6.08909e-14
4.73987e-14
3.68231e-14
2.85504e-14
2.20924e-14
1.70614e-14
1.31499e-14
1.01151e-14
7.76526e-15
5.9495e-15
4.54929e-15
3.47173e-15
2.64415e-15
2.00986e-15
1.52469e-15
1.15435e-15
8.72232e-16
6.57755e-16
4.95034e-16
3.7183e-16
2.78735e-16
2.08534e-16
1.55704e-16
1.16028e-16
8.629e-17
6.40469e-17
4.74431e-17
3.50741e-17
2.58784e-17
1.90558e-17
1.4004e-17
1.02711e-17
7.5183e-18
5.49237e-18
4.00439e-18
2.91374e-18
2.11594e-18
1.53353e-18
1.10923e-18
8.00728e-19
5.76882e-19
4.14788e-19
2.97648e-19
2.13165e-19
1.52358e-19
1.08681e-19
7.7371e-20
5.49718e-20
3.89796e-20
2.75849e-20
1.94824e-20
1.37324e-20
9.66012e-21
6.78178e-21
4.75135e-21
3.3218e-21
2.31712e-21
1.61215e-21
1.11801e-21
7.7163e-22
5.28253e-22
3.56007e-22
2.32e-22
1.3946e-22
6.56108e-23
0
0
2.02011e-09
4.09393e-09
6.23704e-09
8.46566e-09
1.07967e-08
1.32476e-08
1.58365e-08
1.85824e-08
2.15046e-08
2.4623e-08
2.7958e-08
3.15302e-08
3.53604e-08
3.94695e-08
4.38781e-08
4.86065e-08
5.36745e-08
5.91012e-08
6.49044e-08
7.11011e-08
7.77067e-08
8.47349e-08
9.21977e-08
1.00105e-07
1.08463e-07
1.17279e-07
1.26554e-07
1.36287e-07
1.46474e-07
1.57109e-07
1.68181e-07
1.79676e-07
1.91577e-07
2.03861e-07
2.16504e-07
2.29476e-07
2.42744e-07
2.56273e-07
2.70021e-07
2.83944e-07
2.97996e-07
3.12125e-07
3.26278e-07
3.40399e-07
3.5443e-07
3.6831e-07
3.81978e-07
3.95371e-07
4.08425e-07
4.21077e-07
4.33263e-07
4.44921e-07
4.55991e-07
4.66413e-07
4.76131e-07
4.85091e-07
4.93244e-07
5.00544e-07
5.06948e-07
5.1242e-07
5.16928e-07
5.20446e-07
5.22953e-07
5.24434e-07
5.2488e-07
5.24289e-07
5.22665e-07
5.20017e-07
5.1636e-07
5.11716e-07
5.06112e-07
4.99581e-07
4.9216e-07
4.83892e-07
4.74823e-07
4.65004e-07
4.54488e-07
4.43333e-07
4.31597e-07
4.19342e-07
4.0663e-07
3.93525e-07
3.8009e-07
3.66389e-07
3.52483e-07
3.38436e-07
3.24306e-07
3.10153e-07
2.96031e-07
2.81995e-07
2.68093e-07
2.54373e-07
2.40878e-07
2.27649e-07
2.14721e-07
2.02127e-07
1.89896e-07
1.78053e-07
1.66619e-07
1.5561e-07
1.45042e-07
1.34925e-07
1.25265e-07
1.16068e-07
1.07333e-07
9.90589e-08
9.12424e-08
8.38766e-08
7.6953e-08
7.04615e-08
6.43901e-08
5.87256e-08
5.34536e-08
4.85587e-08
4.40249e-08
3.98355e-08
3.59736e-08
3.24218e-08
2.9163e-08
2.61799e-08
2.34555e-08
2.09731e-08
1.87163e-08
1.66694e-08
1.4817e-08
1.31444e-08
1.16376e-08
1.02831e-08
9.06835e-09
7.98127e-09
7.01062e-09
6.14585e-09
5.37709e-09
4.6952e-09
4.09167e-09
3.55868e-09
3.08899e-09
2.676e-09
2.31364e-09
1.99639e-09
1.71923e-09
1.47763e-09
1.26747e-09
1.08505e-09
9.27044e-10
7.90484e-10
6.72706e-10
5.71345e-10
4.84297e-10
4.097e-10
3.45907e-10
2.9147e-10
2.45114e-10
2.05723e-10
1.7232e-10
1.44056e-10
1.20189e-10
1.00078e-10
8.31678e-11
6.89779e-11
5.70959e-11
4.71672e-11
3.88879e-11
3.19985e-11
2.62775e-11
2.15366e-11
1.76162e-11
1.43809e-11
1.17165e-11
9.52692e-12
7.73117e-12
6.26149e-12
5.06116e-12
4.08284e-12
3.2871e-12
2.64122e-12
2.11804e-12
1.69514e-12
1.35398e-12
1.07935e-12
8.58717e-13
6.81832e-13
5.40311e-13
4.27317e-13
3.37284e-13
2.65693e-13
2.08883e-13
1.63895e-13
1.28341e-13
1.00302e-13
7.82325e-14
6.08984e-14
4.73112e-14
3.66826e-14
2.83854e-14
2.19215e-14
1.68959e-14
1.29967e-14
9.97757e-15
7.64458e-15
5.8455e-15
4.46095e-15
3.3976e-15
2.58259e-15
1.95919e-15
1.48333e-15
1.12082e-15
8.45227e-16
6.36134e-16
4.77818e-16
3.58191e-16
2.67981e-16
2.00093e-16
1.49107e-16
1.10893e-16
8.23085e-17
6.09713e-17
4.50758e-17
3.32583e-17
2.44903e-17
1.7998e-17
1.32006e-17
9.66277e-18
7.05905e-18
5.1467e-18
3.74497e-18
2.71961e-18
1.97107e-18
1.42572e-18
1.02921e-18
7.41499e-19
5.33156e-19
3.82592e-19
2.74003e-19
1.95844e-19
1.39702e-19
9.94567e-20
7.06644e-20
5.01077e-20
3.54605e-20
2.50449e-20
1.76535e-20
1.24186e-20
8.71844e-21
6.10826e-21
4.27051e-21
2.97893e-21
2.07264e-21
1.43737e-21
9.9206e-22
6.79166e-22
4.57718e-22
2.98284e-22
1.79307e-22
8.43577e-23
0
0
2.5767e-09
5.22189e-09
7.95546e-09
1.07981e-08
1.37713e-08
1.68975e-08
2.01998e-08
2.37022e-08
2.74294e-08
3.1407e-08
3.56607e-08
4.0217e-08
4.51024e-08
5.03434e-08
5.59664e-08
6.19974e-08
6.84615e-08
7.5383e-08
8.27848e-08
9.06884e-08
9.91134e-08
1.08077e-07
1.17596e-07
1.27681e-07
1.38342e-07
1.49585e-07
1.61414e-07
1.73828e-07
1.86821e-07
2.00385e-07
2.14507e-07
2.29168e-07
2.44345e-07
2.60013e-07
2.76137e-07
2.92682e-07
3.09605e-07
3.26859e-07
3.44393e-07
3.6215e-07
3.80071e-07
3.98091e-07
4.16142e-07
4.34152e-07
4.52047e-07
4.6975e-07
4.87182e-07
5.04262e-07
5.20911e-07
5.37047e-07
5.52589e-07
5.67458e-07
5.81576e-07
5.94868e-07
6.07262e-07
6.1869e-07
6.29088e-07
6.38398e-07
6.46566e-07
6.53545e-07
6.59295e-07
6.63781e-07
6.66979e-07
6.68868e-07
6.69437e-07
6.68684e-07
6.66613e-07
6.63235e-07
6.58572e-07
6.52649e-07
6.45503e-07
6.37174e-07
6.2771e-07
6.17165e-07
6.05599e-07
5.93076e-07
5.79664e-07
5.65437e-07
5.5047e-07
5.34841e-07
5.18629e-07
5.01915e-07
4.8478e-07
4.67305e-07
4.49571e-07
4.31655e-07
4.13635e-07
3.95584e-07
3.77573e-07
3.59671e-07
3.4194e-07
3.24442e-07
3.07231e-07
2.90358e-07
2.7387e-07
2.57808e-07
2.42208e-07
2.27103e-07
2.12519e-07
1.98479e-07
1.85e-07
1.72096e-07
1.59776e-07
1.48044e-07
1.36903e-07
1.26351e-07
1.16381e-07
1.06986e-07
9.81555e-08
8.98757e-08
8.21318e-08
7.49068e-08
6.81824e-08
6.1939e-08
5.61561e-08
5.08126e-08
4.58866e-08
4.13563e-08
3.71997e-08
3.33946e-08
2.99196e-08
2.67532e-08
2.38746e-08
2.12636e-08
1.89007e-08
1.67673e-08
1.48452e-08
1.31175e-08
1.15679e-08
1.01813e-08
8.94311e-09
7.84e-09
6.85937e-09
5.98954e-09
5.21967e-09
4.53976e-09
3.94061e-09
3.41377e-09
2.95153e-09
2.54683e-09
2.19327e-09
1.88506e-09
1.61696e-09
1.38425e-09
1.18268e-09
1.00847e-09
8.58221e-10
7.28912e-10
6.17862e-10
5.22694e-10
4.41311e-10
3.71862e-10
3.12722e-10
2.62468e-10
2.19854e-10
1.83794e-10
1.53345e-10
1.27687e-10
1.06112e-10
8.80083e-11
7.28487e-11
6.0181e-11
4.96178e-11
4.08278e-11
3.35284e-11
2.74796e-11
2.24775e-11
1.83496e-11
1.49501e-11
1.21563e-11
9.86499e-12
7.98974e-12
6.45816e-12
5.20984e-12
4.19449e-12
3.37034e-12
2.70276e-12
2.16313e-12
1.72781e-12
1.37736e-12
1.09582e-12
8.70103e-13
6.89511e-13
5.4532e-13
4.30428e-13
3.39069e-13
2.66573e-13
2.09162e-13
1.6379e-13
1.28007e-13
9.9843e-14
7.77214e-14
6.03813e-14
4.68169e-14
3.62279e-14
2.79783e-14
2.15645e-14
1.6588e-14
1.27347e-14
9.75716e-15
7.46098e-15
5.69386e-15
4.33667e-15
3.29643e-15
2.50075e-15
1.89337e-15
1.43067e-15
1.0789e-15
8.12009e-16
6.09929e-16
4.57231e-16
3.42082e-16
2.55425e-16
1.90342e-16
1.41561e-16
1.05073e-16
7.78353e-17
5.7544e-17
4.24582e-17
3.12651e-17
2.29772e-17
1.68528e-17
1.23363e-17
9.01227e-18
6.57086e-18
4.78131e-18
3.47224e-18
2.51658e-18
1.82032e-18
1.31409e-18
9.46752e-19
6.80748e-19
4.8851e-19
3.49863e-19
2.50069e-19
1.78385e-19
1.26997e-19
9.02332e-20
6.39846e-20
4.52816e-20
3.19818e-20
2.25434e-20
1.58587e-20
1.11337e-20
7.80053e-21
5.4537e-21
3.80434e-21
2.64696e-21
1.83569e-21
1.26699e-21
8.67396e-22
5.8458e-22
3.80962e-22
2.29009e-22
1.07741e-22
0
0
3.27093e-09
6.62881e-09
1.00989e-08
1.37074e-08
1.74817e-08
2.14501e-08
2.56421e-08
3.00881e-08
3.48195e-08
3.98686e-08
4.52683e-08
5.10521e-08
5.72535e-08
6.39064e-08
7.10442e-08
7.86998e-08
8.69051e-08
9.5691e-08
1.05087e-07
1.15119e-07
1.25813e-07
1.37192e-07
1.49274e-07
1.62075e-07
1.75607e-07
1.89879e-07
2.04894e-07
2.20651e-07
2.37144e-07
2.54361e-07
2.72285e-07
2.90895e-07
3.1016e-07
3.30046e-07
3.50513e-07
3.71514e-07
3.92994e-07
4.14894e-07
4.3715e-07
4.5969e-07
4.82437e-07
5.0531e-07
5.28221e-07
5.51081e-07
5.73795e-07
5.96265e-07
6.18391e-07
6.40071e-07
6.61203e-07
6.81684e-07
7.01412e-07
7.20284e-07
7.38204e-07
7.55076e-07
7.70807e-07
7.85313e-07
7.98511e-07
8.10328e-07
8.20695e-07
8.29554e-07
8.36852e-07
8.42547e-07
8.46606e-07
8.49004e-07
8.49728e-07
8.48772e-07
8.46143e-07
8.41856e-07
8.35937e-07
8.28421e-07
8.1935e-07
8.08778e-07
7.96766e-07
7.83382e-07
7.68702e-07
7.52807e-07
7.35785e-07
7.17727e-07
6.9873e-07
6.78892e-07
6.58314e-07
6.371e-07
6.15351e-07
5.93171e-07
5.70661e-07
5.4792e-07
5.25047e-07
5.02135e-07
4.79275e-07
4.56551e-07
4.34046e-07
4.11835e-07
3.89989e-07
3.68572e-07
3.47643e-07
3.27255e-07
3.07454e-07
2.88281e-07
2.69769e-07
2.51948e-07
2.34839e-07
2.18459e-07
2.0282e-07
1.87929e-07
1.73787e-07
1.60392e-07
1.47737e-07
1.35811e-07
1.24602e-07
1.14092e-07
1.04262e-07
9.50903e-08
8.65543e-08
7.8629e-08
7.12882e-08
6.4505e-08
5.82519e-08
5.2501e-08
4.72244e-08
4.23942e-08
3.79828e-08
3.39632e-08
3.0309e-08
2.69945e-08
2.39949e-08
2.12865e-08
1.88465e-08
1.66532e-08
1.46861e-08
1.29257e-08
1.13538e-08
9.95343e-09
8.7085e-09
7.60422e-09
6.62684e-09
5.76367e-09
5.00302e-09
4.33418e-09
3.74732e-09
3.23352e-09
2.78466e-09
2.39336e-09
2.05298e-09
1.75753e-09
1.50162e-09
1.28043e-09
1.08967e-09
9.25496e-10
7.84501e-10
6.63672e-10
5.60342e-10
4.72164e-10
3.97076e-10
3.33268e-10
2.79161e-10
2.33376e-10
1.94714e-10
1.62136e-10
1.34741e-10
1.11753e-10
9.25044e-11
7.64194e-11
6.30065e-11
5.1845e-11
4.25763e-11