# vtk DataFile Version 3.0
2D field
ASCII
DATASET STRUCTURED_POINTS
DIMENSIONS 257 257 1
ORIGIN 0 0 0
SPACING 0.00390625 0.00390625 1
POINT_DATA 66049
SCALARS temperature double 1
LOOKUP_TABLE default
0
0
0
0
0
0
0
0
0
0
0
0
0
0
0
0
0
0
0
0
0
0
0
0
0
0
0
0
0
0
0
0
0
0
0
0
0
0
0
0
0
0
0
0
0
0
0
0
0
0
0
0
0
0
0
0
0
0
0
0
0
0
0
0
0
0
0
0
0
0
0
0
0
0
0
0
0
0
0
0
0
0
0
0
0
0
0
0
0
0
0
0
0
0
0
0
0
0
0
0
0
0
0
0
0
0
0
0
0
0
0
0
0
0
0
0
0
0
0
0
0
0
0
0
0
0
0
0
0
0
0
0
0
0
0
0
0
0
0
0
0
0
0
0
0
0
0
0
0
0
0
0
0
0
0
0
0
0
0
0
0
0
0
0
0
0
0
0
0
0
0
0
0
0
0
0
0
0
0
0
0
0
0
0
0
0
0
0
0
0
0
0
0
0
0
0
0
0
0
0
0
0
0
0
0
0
0
0
0
0
0
0
0
0
0
0
0
0
0
0
0
0
0
0
0
0
0
0
0
0
0
0
0
0
0
0
0
0
0
0
0
0
0
0
0
0
0
0
0
0
0
0
0
0
0
0
0
0
1.42068e-11
2.19482e-11
2.5499e-11
2.9552e-11
3.41658e-11
3.94038e-11
4.53341e-11
5.203e-11
5.95695e-11
6.80354e-11
7.75153e-11
8.8101e-11
9.98885e-11
1.12977e-10
1.2747e-10
1.43472e-10
1.61089e-10
1.80429e-10
2.01599e-10
2.24704e-10
2.49847e-10
2.77128e-10
3.06639e-10
3.38465e-10
3.72686e-10
4.09367e-10
4.48564e-10
4.90317e-10
5.34651e-10
5.81574e-10
6.31075e-10
6.83122e-10
7.37661e-10
7.94614e-10
8.5388e-10
9.15333e-10
9.78818e-10
1.04416e-09
1.11115e-09
1.17956e-09
1.24913e-09
1.31958e-09
1.39061e-09
1.4619e-09
1.5331e-09
1.60385e-09
1.67378e-09
1.74251e-09
1.80964e-09
1.87478e-09
1.93754e-09
1.99752e-09
2.05435e-09
2.10764e-09
2.15706e-09
2.20225e-09
2.24292e-09
2.27878e-09
2.30957e-09
2.33508e-09
2.35513e-09
2.36956e-09
2.37827e-09
2.3812e-09
2.37833e-09
2.36968e-09
2.35532e-09
2.33534e-09
2.30989e-09
2.27915e-09
2.24335e-09
2.20273e-09
2.15758e-09
2.10821e-09
2.05496e-09
1.99817e-09
1.93822e-09
1.87549e-09
1.81037e-09
1.74326e-09
1.67455e-09
1.60463e-09
1.53388e-09
1.46269e-09
1.3914e-09
1.32036e-09
1.2499e-09
1.18032e-09
1.1119e-09
1.04489e-09
9.79532e-10
9.16025e-10
8.54549e-10
7.95258e-10
7.38279e-10
6.83713e-10
6.31638e-10
5.82108e-10
5.35156e-10
4.90794e-10
4.49012e-10
4.09787e-10
3.73079e-10
3.38831e-10
3.06978e-10
2.77442e-10
2.50137e-10
2.24971e-10
2.01844e-10
1.80653e-10
1.61293e-10
1.43658e-10
1.27639e-10
1.1313e-10
1.00026e-10
8.82246e-11
7.76261e-11
6.81345e-11
5.96579e-11
5.21086e-11
4.54038e-11
3.94654e-11
3.42202e-11
2.95998e-11
2.55409e-11
2.19849e-11
1.8878e-11
1.61706e-11
1.38178e-11
1.17786e-11
1.00158e-11
8.49616e-12
7.18952e-12
6.06902e-12
5.11067e-12
4.29317e-12
3.59766e-12
3.00748e-12
2.508e-12
2.08638e-12
1.73141e-12
1.43333e-12
1.18368e-12
9.75136e-13
8.01376e-13
6.56975e-13
5.37282e-13
4.38326e-13
3.56724e-13
2.89607e-13
2.34546e-13
1.8949e-13
1.52717e-13
1.22781e-13
9.84719e-14
7.87837e-14
6.28784e-14
5.00619e-14
3.97608e-14
3.15024e-14
2.48985e-14
1.96311e-14
1.54403e-14
1.21146e-14
9.48209e-15
7.40355e-15
5.76656e-15
4.48058e-15
3.47291e-15
2.68531e-15
2.07126e-15
1.59374e-15
1.22332e-15
9.36712e-16
7.15504e-16
5.45204e-16
4.14426e-16
3.14251e-16
2.3771e-16
1.79374e-16
1.35024e-16
1.01393e-16
7.59523e-17
5.67567e-17
4.23092e-17
3.14625e-17
2.33396e-17
1.72717e-17
1.27502e-17
9.38943e-18
6.89769e-18
5.05486e-18
3.69535e-18
2.6949e-18
1.96052e-18
1.42279e-18
1.03004e-18
7.43884e-19
5.35919e-19
3.85153e-19
2.76127e-19
1.97481e-19
1.40891e-19
1.00273e-19
7.11906e-20
5.04201e-20
3.56227e-20
2.51067e-20
1.7652e-20
1.23806e-20
8.66218e-21
6.04582e-21
4.20944e-21
2.92371e-21
2.02575e-21
1.40016e-21
9.65411e-22
6.64029e-22
4.5562e-22
3.1186e-22
2.1294e-22
1.45043e-22
9.85547e-23
6.68035e-23
4.51712e-23
3.04695e-23
2.05026e-23
1.37624e-23
9.21558e-24
6.15589e-24
4.10204e-24
2.72678e-24
1.80818e-24
1.19612e-24
7.8931e-25
5.19592e-25
3.41207e-25
2.23519e-25
1.46067e-25
9.52208e-26
6.1923e-26
4.01711e-26
2.59966e-26
1.67826e-26
1.0808e-26
6.94335e-27
4.44975e-27
2.84475e-27
1.81423e-27
1.1542e-27
7.3251e-28
4.63752e-28
2.92886e-28
1.84524e-28
9.66397e-29
0
0
2.46367e-11
3.60512e-11
4.18849e-11
4.8544e-11
5.61248e-11
6.47314e-11
7.44759e-11
8.54787e-11
9.7868e-11
1.1178e-10
1.27359e-10
1.44755e-10
1.64128e-10
1.85639e-10
2.09458e-10
2.35758e-10
2.64714e-10
2.96503e-10
3.313e-10
3.69279e-10
4.10609e-10
4.55453e-10
5.03964e-10
5.56284e-10
6.1254e-10
6.72842e-10
7.3728e-10
8.05923e-10
8.7881e-10
9.55955e-10
1.03734e-09
1.12291e-09
1.21258e-09
1.30622e-09
1.40367e-09
1.50471e-09
1.60909e-09
1.71653e-09
1.82668e-09
1.93916e-09
2.05356e-09
2.16941e-09
2.28621e-09
2.40343e-09
2.52051e-09
2.63685e-09
2.75184e-09
2.86486e-09
2.97525e-09
3.08237e-09
3.18557e-09
3.28421e-09
3.37765e-09
3.46529e-09
3.54654e-09
3.62086e-09
3.68774e-09
3.7467e-09
3.79733e-09
3.83927e-09
3.87223e-09
3.89595e-09
3.91027e-09
3.91508e-09
3.91036e-09
3.89612e-09
3.87249e-09
3.83962e-09
3.79776e-09
3.7472e-09
3.68832e-09
3.62151e-09
3.54726e-09
3.46606e-09
3.37848e-09
3.28509e-09
3.1865e-09
3.08334e-09
2.97625e-09
2.86589e-09
2.75289e-09
2.63791e-09
2.52158e-09
2.40451e-09
2.28728e-09
2.17047e-09
2.05462e-09
1.9402e-09
1.8277e-09
1.71753e-09
1.61007e-09
1.50565e-09
1.40458e-09
1.3071e-09
1.21342e-09
1.12372e-09
1.03811e-09
9.56682e-10
8.79498e-10
8.06572e-10
7.37891e-10
6.73414e-10
6.13074e-10
5.56781e-10
5.04426e-10
4.55881e-10
4.11004e-10
3.69642e-10
3.31633e-10
2.96808e-10
2.64993e-10
2.36011e-10
2.09688e-10
1.85847e-10
1.64315e-10
1.44924e-10
1.2751e-10
1.11915e-10
9.79883e-11
8.55857e-11
7.45708e-11
6.48153e-11
5.61988e-11
4.86091e-11
4.1942e-11
3.61012e-11
3.09981e-11
2.65515e-11
2.26874e-11
1.93384e-11
1.64436e-11
1.39481e-11
1.18025e-11
9.96262e-12
8.38908e-12
7.04687e-12
5.90498e-12
4.93608e-12
4.11611e-12
3.42399e-12
2.84131e-12
2.35204e-12
1.94229e-12
1.60001e-12
1.31484e-12
1.07786e-12
8.81445e-13
7.19065e-13
5.8517e-13
4.75047e-13
3.84709e-13
3.10791e-13
2.50464e-13
2.01356e-13
1.61482e-13
1.29188e-13
1.03101e-13
8.20818e-14
6.51883e-14
5.16456e-14
4.08167e-14
3.21799e-14
2.53088e-14
1.98563e-14
1.55406e-14
1.21332e-14
9.44988e-15
7.34206e-15
5.69049e-15
4.3997e-15
3.39341e-15
2.61091e-15
2.00395e-15
1.53435e-15
1.17193e-15
8.92936e-16
6.78703e-16
5.14613e-16
3.89244e-16
2.937e-16
2.21069e-16
1.65994e-16
1.24336e-16
9.29056e-17
6.92515e-17
5.1494e-17
3.81967e-17
2.82641e-17
2.08634e-17
1.5363e-17
1.12852e-17
8.26956e-18
6.045e-18
4.4081e-18
3.20662e-18
2.32693e-18
1.68446e-18
1.21641e-18
8.76274e-19
6.2971e-19
4.51421e-19
3.22823e-19
2.30297e-19
1.6389e-19
1.16347e-19
8.23953e-20
5.82089e-20
4.1022e-20
2.88394e-20
2.02253e-20
1.41496e-20
9.87499e-21
6.87494e-21
4.77466e-21
3.30793e-21
2.28618e-21
1.57618e-21
1.08404e-21
7.43741e-22
5.09026e-22
3.47536e-22
2.36701e-22
1.6082e-22
1.08999e-22
7.36964e-23
4.97061e-23
3.34437e-23
2.24471e-23
1.50296e-23
1.00386e-23
6.68872e-24
4.44583e-24
2.94783e-24
1.94982e-24
1.28655e-24
8.46834e-25
5.56048e-25
3.64223e-25
2.37992e-25
1.55131e-25
1.00873e-25
6.54326e-26
4.23403e-26
2.73309e-26
1.75993e-26
1.13051e-26
7.24434e-27
4.63087e-27
2.95302e-27
1.8785e-27
1.19206e-27
7.54614e-28
4.76533e-28
3.00194e-28
1.62322e-28
0
0
3.34546e-11
4.89589e-11
5.68813e-11
6.59246e-11
7.62196e-11
8.79077e-11
1.01141e-10
1.16083e-10
1.32908e-10
1.51802e-10
1.72958e-10
1.96583e-10
2.22891e-10
2.52105e-10
2.84452e-10
3.20169e-10
3.59492e-10
4.02662e-10
4.49917e-10
5.01494e-10
5.57622e-10
6.18522e-10
6.84402e-10
7.55454e-10
8.31852e-10
9.13744e-10
1.00125e-09
1.09447e-09
1.19346e-09
1.29822e-09
1.40875e-09
1.52496e-09
1.64673e-09
1.7739e-09
1.90623e-09
2.04345e-09
2.18521e-09
2.33111e-09
2.4807e-09
2.63346e-09
2.78881e-09
2.94613e-09
3.10475e-09
3.26395e-09
3.42294e-09
3.58094e-09
3.73711e-09
3.89058e-09
4.0405e-09
4.18597e-09
4.32612e-09
4.46007e-09
4.58697e-09
4.70599e-09
4.81634e-09
4.91727e-09
5.00808e-09
5.08815e-09
5.15692e-09
5.21388e-09
5.25863e-09
5.29084e-09
5.31029e-09
5.31683e-09
5.31041e-09
5.29108e-09
5.25898e-09
5.21434e-09
5.15749e-09
5.08884e-09
5.00887e-09
4.91815e-09
4.81731e-09
4.70704e-09
4.5881e-09
4.46127e-09
4.32738e-09
4.18728e-09
4.04186e-09
3.89198e-09
3.73853e-09
3.58238e-09
3.4244e-09
3.26541e-09
3.10621e-09
2.94759e-09
2.79024e-09
2.63487e-09
2.48209e-09
2.33247e-09
2.18653e-09
2.04473e-09
1.90747e-09
1.77509e-09
1.64787e-09
1.52605e-09
1.40979e-09
1.29921e-09
1.19439e-09
1.09535e-09
1.00208e-09
9.14521e-10
8.32578e-10
7.5613e-10
6.8503e-10
6.19103e-10
5.58159e-10
5.01988e-10
4.50371e-10
4.03076e-10
3.5987e-10
3.20513e-10
2.84764e-10
2.52387e-10
2.23146e-10
1.96812e-10
1.73163e-10
1.51985e-10
1.33072e-10
1.16229e-10
1.0127e-10
8.80217e-11
7.63202e-11
6.60131e-11
5.69589e-11
4.90268e-11
4.20966e-11
3.6058e-11
3.08103e-11
2.62623e-11
2.23311e-11
1.89421e-11
1.60283e-11
1.35296e-11
1.13927e-11
9.56993e-12
8.0192e-12
6.7034e-12
5.58984e-12
4.64991e-12
3.85861e-12
3.19417e-12
2.63771e-12
2.17288e-12
1.78561e-12
1.46378e-12
1.19704e-12
9.7652e-13
7.94685e-13
6.45134e-13
5.22451e-13
4.22067e-13
3.40141e-13
2.7345e-13
2.19299e-13
1.75443e-13
1.40016e-13
1.11471e-13
8.85285e-14
7.0137e-14
5.54309e-14
4.37016e-14
3.43704e-14
2.69657e-14
2.11048e-14
1.64774e-14
1.28334e-14
9.97084e-15
7.72794e-15
5.97499e-15
4.60841e-15
3.54573e-15
2.72146e-15
2.08372e-15
1.59154e-15
1.21265e-15
9.2171e-16
6.98868e-16
5.28611e-16
3.98858e-16
3.00221e-16
2.25427e-16
1.68854e-16
1.2617e-16
9.40467e-17
6.99313e-17
5.18729e-17
3.8384e-17
2.83335e-17
2.08637e-17
1.53258e-17
1.12305e-17
8.2094e-18
5.98641e-18
4.35474e-18
3.16009e-18
2.28759e-18
1.65195e-18
1.19002e-18
8.55177e-19
6.13052e-19
4.3841e-19
3.12754e-19
2.2257e-19
1.58006e-19
1.11897e-19
7.90506e-20
5.571e-20
3.91653e-20
2.7467e-20
1.92159e-20
1.34108e-20
9.33653e-21
6.48424e-21
4.49234e-21
3.10476e-21
2.14054e-21
1.47218e-21
1.01004e-21
6.91285e-22
4.71972e-22
3.21453e-22
2.18403e-22
1.48027e-22
1.00084e-22
6.75037e-23
4.54184e-23
3.04844e-23
2.0411e-23
1.3633e-23
9.08366e-24
6.03768e-24
4.00332e-24
2.64796e-24
1.7472e-24
1.15005e-24
7.55145e-25
4.94635e-25
3.23207e-25
2.10677e-25
1.36992e-25
8.88613e-26
5.75005e-26
3.71169e-26
2.39008e-26
1.53531e-26
9.83824e-27
6.28899e-27
4.01038e-27
2.55112e-27
1.61889e-27
1.02481e-27
6.47161e-28
4.07682e-28
2.20431e-28
0
0
4.53179e-11
6.63262e-11
7.70588e-11
8.93101e-11
1.03257e-10
1.19091e-10
1.37019e-10
1.57262e-10
1.80055e-10
2.0565e-10
2.34312e-10
2.66318e-10
3.01958e-10
3.41534e-10
3.85356e-10
4.33742e-10
4.87015e-10
5.45498e-10
6.09517e-10
6.79389e-10
7.55428e-10
8.3793e-10
9.2718e-10
1.02344e-09
1.12693e-09
1.23788e-09
1.35643e-09
1.48271e-09
1.61681e-09
1.75874e-09
1.90847e-09
2.0659e-09
2.23087e-09
2.40315e-09
2.58243e-09
2.76832e-09
2.96037e-09
3.15803e-09
3.36067e-09
3.56762e-09
3.77808e-09
3.99121e-09
4.2061e-09
4.42176e-09
4.63716e-09
4.8512e-09
5.06277e-09
5.27069e-09
5.47378e-09
5.67086e-09
5.86072e-09
6.04219e-09
6.2141e-09
6.37534e-09
6.52483e-09
6.66156e-09
6.78459e-09
6.89307e-09
6.98622e-09
7.06339e-09
7.12401e-09
7.16765e-09
7.194e-09
7.20286e-09
7.19416e-09
7.16798e-09
7.12449e-09
7.06402e-09
6.987e-09
6.894e-09
6.78566e-09
6.66276e-09
6.52614e-09
6.37677e-09
6.21563e-09
6.04381e-09
5.86243e-09
5.67264e-09
5.47562e-09
5.27258e-09
5.06469e-09
4.85316e-09
4.63913e-09
4.42374e-09
4.20808e-09
3.99318e-09
3.78003e-09
3.56954e-09
3.36256e-09
3.15986e-09
2.96216e-09
2.77006e-09
2.58411e-09
2.40477e-09
2.23242e-09
2.06738e-09
1.90988e-09
1.76008e-09
1.61808e-09
1.48391e-09
1.35755e-09
1.23893e-09
1.12792e-09
1.02435e-09
9.2803e-10
8.38718e-10
7.56155e-10
6.80059e-10
6.10131e-10
5.4606e-10
4.87527e-10
4.34208e-10
3.85779e-10
3.41916e-10
3.02303e-10
2.66627e-10
2.3459e-10
2.05899e-10
1.80277e-10
1.57459e-10
1.37194e-10
1.19246e-10
1.03393e-10
8.943e-11
7.7164e-11
6.64182e-11
5.70296e-11
4.88489e-11
4.17397e-11
3.55784e-11
3.02526e-11
2.56614e-11
2.1714e-11
1.8329e-11
1.54341e-11
1.29647e-11
1.08639e-11
9.08131e-12
7.57274e-12
6.29939e-12
5.22739e-12
4.32725e-12
3.57339e-12
2.94367e-12
2.41902e-12
1.98304e-12
1.62167e-12
1.32293e-12
1.07659e-12
8.73985e-13
7.07782e-13
5.71789e-13
4.60801e-13
3.70452e-13
2.97092e-13
2.37679e-13
1.89685e-13
1.51013e-13
1.19933e-13
9.50171e-14
7.50942e-14
5.92042e-14
4.65628e-14
3.65314e-14
2.85914e-14
2.23226e-14
1.73858e-14
1.35079e-14
1.04693e-14
8.09453e-15
6.24318e-15
4.80353e-15
3.68686e-15
2.82289e-15
2.15611e-15
1.64282e-15
1.24868e-15
9.46783e-16
7.1613e-16
5.40349e-16
4.06722e-16
3.05395e-16
2.28753e-16
1.70928e-16
1.27409e-16
9.47387e-17
7.02742e-17
5.20003e-17
3.83845e-17
2.82649e-17
2.07625e-17
1.52144e-17
1.11216e-17
8.11004e-18
5.89955e-18
4.2811e-18
3.09909e-18
2.23796e-18
1.61217e-18
1.15854e-18
8.30528e-19
5.93932e-19
4.23701e-19
3.01526e-19
2.14057e-19
1.51592e-19
1.07093e-19
7.54727e-20
5.3059e-20
3.72108e-20
2.60327e-20
1.81681e-20
1.26486e-20
8.78448e-21
6.08598e-21
4.20616e-21
2.89989e-21
1.99443e-21
1.36835e-21
9.36515e-22
6.39402e-22
4.35487e-22
2.9588e-22
2.00539e-22
1.35588e-22
9.14504e-23
6.15305e-23
4.12987e-23
2.76518e-23
1.84693e-23
1.23061e-23
8.17954e-24
5.42349e-24
3.58732e-24
2.36702e-24
1.55803e-24
1.02303e-24
6.70107e-25
4.37865e-25
2.85415e-25
1.8559e-25
1.20385e-25
7.78989e-26
5.02842e-26
3.23797e-26
2.07996e-26
1.33284e-26
8.52002e-27
5.43307e-27
3.45614e-27
2.19319e-27
1.38837e-27
8.76743e-28
5.52308e-28
2.98613e-28
0
0
6.12385e-11
8.96353e-11
1.0414e-10
1.20696e-10
1.39545e-10
1.60944e-10
1.85172e-10
2.12528e-10
2.43332e-10
2.77922e-10
3.16656e-10
3.5991e-10
4.08075e-10
4.61559e-10
5.20782e-10
5.86173e-10
6.58167e-10
7.37203e-10
8.23719e-10
9.18147e-10
1.02091e-09
1.1324e-09
1.25302e-09
1.3831e-09
1.52297e-09
1.6729e-09
1.83312e-09
2.00379e-09
2.18501e-09
2.37681e-09
2.57916e-09
2.79192e-09
3.01487e-09
3.24769e-09
3.48997e-09
3.74119e-09
4.00073e-09
4.26785e-09
4.54172e-09
4.82138e-09
5.10581e-09
5.39384e-09
5.68425e-09
5.9757e-09
6.26679e-09
6.55606e-09
6.84197e-09
7.12296e-09
7.39743e-09
7.66376e-09
7.92035e-09
8.16559e-09
8.39792e-09
8.61582e-09
8.81785e-09
9.00263e-09
9.1689e-09
9.31549e-09
9.44138e-09
9.54567e-09
9.6276e-09
9.68658e-09
9.72218e-09
9.73415e-09
9.7224e-09
9.68701e-09
9.62824e-09
9.54652e-09
9.44244e-09
9.31675e-09
9.17034e-09
9.00424e-09
8.81962e-09
8.61775e-09
8.39998e-09
8.16778e-09
7.92266e-09
7.66617e-09
7.39992e-09
7.12551e-09
6.84458e-09
6.5587e-09
6.26946e-09
5.97838e-09
5.68692e-09
5.3965e-09
5.10844e-09
4.82398e-09
4.54426e-09
4.27033e-09
4.00315e-09
3.74354e-09
3.49224e-09
3.24987e-09
3.01696e-09
2.79392e-09
2.58107e-09
2.37862e-09
2.18672e-09
2.0054e-09
1.83464e-09
1.67433e-09
1.5243e-09
1.38434e-09
1.25417e-09
1.13347e-09
1.02189e-09
9.19052e-10
8.24549e-10
7.37962e-10
6.58859e-10
5.86802e-10
5.21353e-10
4.62076e-10
4.08541e-10
3.60329e-10
3.17032e-10
2.78258e-10
2.43632e-10
2.12795e-10
1.85408e-10
1.61153e-10
1.39729e-10
1.20859e-10
1.04282e-10
8.97597e-11
7.70716e-11
6.6016e-11
5.64084e-11
4.80818e-11
4.08844e-11
3.46797e-11
2.9345e-11
2.47705e-11
2.08581e-11
1.75209e-11
1.46818e-11
1.22728e-11
1.02341e-11
8.51321e-12
7.06447e-12
5.84799e-12
4.8292e-12
3.97818e-12
3.26915e-12
2.67994e-12
2.19158e-12
1.78785e-12
1.45494e-12
1.18113e-12
9.56521e-13
7.72736e-13
6.22743e-13
5.00642e-13
4.01501e-13
3.21208e-13
2.56347e-13
2.04085e-13
1.62081e-13
1.28409e-13
1.01485e-13
8.00107e-14
6.29267e-14
4.93699e-14
3.86394e-14
3.01676e-14
2.34958e-14
1.8255e-14
1.41486e-14
1.09393e-14
8.43727e-15
6.49168e-15
4.98256e-15
3.81496e-15
2.91385e-15
2.22017e-15
1.68751e-15
1.27952e-15
9.67805e-16
7.30248e-16
5.49659e-16
4.12722e-16
3.09146e-16
2.30998e-16
1.72185e-16
1.28034e-16
9.49714e-17
7.02753e-17
5.18744e-17
3.81984e-17
2.80593e-17
2.05613e-17
1.50302e-17
1.09602e-17
7.97289e-18
5.78566e-18
4.18823e-18
3.02447e-18
2.17876e-18
1.56571e-18
1.12241e-18
8.02665e-19
5.72608e-19
4.07495e-19
2.89286e-19
2.04868e-19
1.44731e-19
1.01997e-19
7.17062e-20
5.02883e-20
3.51817e-20
2.45532e-20
1.70939e-20
1.18717e-20
8.22486e-21
5.68439e-21
3.91904e-21
2.69536e-21
1.84925e-21
1.26565e-21
8.64118e-22
5.88537e-22
3.99866e-22
2.71017e-22
1.8324e-22
1.2359e-22
8.31553e-23
5.5813e-23
3.73699e-23
2.49603e-23
1.6631e-23
1.10542e-23
7.32957e-24
4.84808e-24
3.19891e-24
2.1056e-24
1.38258e-24
9.05616e-25
5.91752e-25
3.85724e-25
2.50815e-25
1.62694e-25
1.05277e-25
6.79566e-26
4.37596e-26
2.81096e-26
1.80127e-26
1.15144e-26
7.34254e-27
4.6708e-27
2.964e-27
1.87631e-27
1.18488e-27
7.46419e-28
4.0354e-28
0
0
8.25507e-11
1.20841e-10
1.40395e-10
1.62716e-10
1.88126e-10
2.16974e-10
2.49637e-10
2.86518e-10
3.28046e-10
3.74678e-10
4.26897e-10
4.85208e-10
5.50142e-10
6.22246e-10
7.02087e-10
7.90242e-10
8.873e-10
9.93852e-10
1.11049e-09
1.23779e-09
1.37633e-09
1.52664e-09
1.68924e-09
1.86461e-09
2.05318e-09
2.25531e-09
2.4713e-09
2.70138e-09
2.94569e-09
3.20427e-09
3.47707e-09
3.76389e-09
4.06446e-09
4.37833e-09
4.70496e-09
5.04364e-09
5.39353e-09
5.75365e-09
6.12286e-09
6.49989e-09
6.88333e-09
7.27164e-09
7.66315e-09
8.05606e-09
8.4485e-09
8.83847e-09
9.22392e-09
9.60273e-09
9.97275e-09
1.03318e-08
1.06777e-08
1.10083e-08
1.13215e-08
1.16153e-08
1.18877e-08
1.21368e-08
1.23609e-08
1.25586e-08
1.27283e-08
1.28689e-08
1.29793e-08
1.30588e-08
1.31068e-08
1.3123e-08
1.31071e-08
1.30594e-08
1.29802e-08
1.287e-08
1.27297e-08
1.25603e-08
1.23629e-08
1.2139e-08
1.18901e-08
1.16179e-08
1.13243e-08
1.10113e-08
1.06808e-08
1.0335e-08
9.97611e-09
9.60617e-09
9.22743e-09
8.84203e-09
8.45209e-09
8.05967e-09
7.66676e-09
7.27523e-09
6.88688e-09
6.50339e-09
6.12629e-09
5.757e-09
5.3968e-09
5.04681e-09
4.70802e-09
4.38128e-09
4.06728e-09
3.76659e-09
3.47964e-09
3.20671e-09
2.948e-09
2.70356e-09
2.47335e-09
2.25723e-09
2.05497e-09
1.86628e-09
1.69079e-09
1.52807e-09
1.37765e-09
1.23901e-09
1.11161e-09
9.94876e-10
8.88234e-10
7.91092e-10
7.02857e-10
6.22943e-10
5.5077e-10
4.85773e-10
4.27403e-10
3.75131e-10
3.2845e-10
2.86877e-10
2.49956e-10
2.17256e-10
1.88374e-10
1.62934e-10
1.40587e-10
1.21009e-10
1.03903e-10
8.89988e-11
7.60465e-11
6.4821e-11
5.51179e-11
4.67531e-11
3.95612e-11
3.33941e-11
2.81197e-11
2.36207e-11
1.97932e-11
1.65455e-11
1.3797e-11
1.1477e-11
9.52391e-12
7.88393e-12
6.51045e-12
5.36315e-12
4.40727e-12
3.61294e-12
2.95456e-12
2.41027e-12
1.96146e-12
1.59234e-12
1.28953e-12
1.04176e-12
8.39546e-13
6.74937e-13
5.41281e-13
4.33035e-13
3.45592e-13
2.75135e-13
2.18509e-13
1.73115e-13
1.36816e-13
1.07866e-13
8.48342e-14
6.65578e-14
5.20916e-14
4.06703e-14
3.16758e-14
2.46104e-14
1.90744e-14
1.47477e-14
1.13747e-14
8.75173e-15
6.71722e-15
5.14312e-15
3.9283e-15
2.99311e-15
2.27501e-15
1.72498e-15
1.30474e-15
9.84482e-16
7.41022e-16
5.5641e-16
4.16774e-16
3.1142e-16
2.32131e-16
1.72608e-16
1.28035e-16
9.47415e-17
6.99344e-17
5.14971e-17
3.78281e-17
2.77197e-17
2.02629e-17
1.4776e-17
1.07487e-17
7.79994e-18
5.64637e-18
4.07744e-18
2.9373e-18
2.11081e-18
1.51318e-18
1.08211e-18
7.71962e-19
5.49364e-19
3.90001e-19
2.76192e-19
1.95119e-19
1.37508e-19
9.66709e-20
6.77962e-20
4.74303e-20
3.31015e-20
2.30452e-20
1.60049e-20
1.10884e-20
7.66343e-21
5.28347e-21
3.63376e-21
2.49307e-21
1.70629e-21
1.16496e-21
7.93438e-22
5.39082e-22
3.65374e-22
2.47036e-22
1.66619e-22
1.12106e-22
7.52447e-23
5.03805e-23
3.36504e-23
2.24212e-23
1.49028e-23
9.88141e-24
6.53598e-24
4.31264e-24
2.83868e-24
1.86393e-24
1.22091e-24
7.97775e-25
5.20017e-25
3.38139e-25
2.19338e-25
1.4193e-25
9.16164e-26
5.89949e-26
3.78963e-26
2.42839e-26
1.55233e-26
9.89892e-27
6.29699e-27
3.99595e-27
2.52957e-27
1.59741e-27
1.00629e-27
5.44008e-28
0
0
1.11009e-10
1.62514e-10
1.88811e-10
2.18829e-10
2.53002e-10
2.91799e-10
3.35726e-10
3.85325e-10
4.41174e-10
5.03888e-10
5.74114e-10
6.52535e-10
7.39861e-10
8.36831e-10
9.44205e-10
1.06276e-09
1.19329e-09
1.33659e-09
1.49345e-09
1.66465e-09
1.85096e-09
2.05311e-09
2.27179e-09
2.50763e-09
2.76123e-09
3.03306e-09
3.32354e-09
3.63296e-09
3.96153e-09
4.30928e-09
4.67615e-09
5.06189e-09
5.46611e-09
5.88822e-09
6.32749e-09
6.78296e-09
7.25352e-09
7.73782e-09
8.23435e-09
8.74141e-09
9.25708e-09
9.7793e-09
1.03058e-08
1.08342e-08
1.1362e-08
1.18864e-08
1.24048e-08
1.29143e-08
1.34119e-08
1.38948e-08
1.436e-08
1.48046e-08
1.52258e-08
1.56209e-08
1.59872e-08
1.63222e-08
1.66237e-08
1.68894e-08
1.71177e-08
1.73068e-08
1.74553e-08
1.75622e-08
1.76268e-08
1.76485e-08
1.76272e-08
1.7563e-08
1.74565e-08
1.73083e-08
1.71196e-08
1.68917e-08
1.66263e-08
1.63251e-08
1.59904e-08
1.56244e-08
1.52296e-08
1.48086e-08
1.43642e-08
1.38991e-08
1.34164e-08
1.29189e-08
1.24096e-08
1.18912e-08
1.13668e-08
1.08391e-08
1.03107e-08
9.78412e-09
9.26185e-09
8.74611e-09
8.23897e-09
7.74233e-09
7.25791e-09
6.78722e-09
6.3316e-09
5.89218e-09
5.4699e-09
5.06552e-09
4.67961e-09
4.31257e-09
3.96463e-09
3.63589e-09
3.32629e-09
3.03564e-09
2.76364e-09
2.50988e-09
2.27387e-09
2.05504e-09
1.85274e-09
1.66629e-09
1.49495e-09
1.33796e-09
1.19455e-09
1.0639e-09
9.45242e-10
8.37769e-10
7.40707e-10
6.53295e-10
5.74796e-10
5.04497e-10
4.41717e-10
3.85808e-10
3.36155e-10
2.92178e-10
2.53336e-10
2.19123e-10
1.89069e-10
1.62739e-10
1.39735e-10
1.19691e-10
1.02272e-10
8.7175e-11
7.41257e-11
6.28763e-11
5.32042e-11
4.49103e-11
3.7817e-11
3.17664e-11
2.6619e-11
2.22513e-11
1.85549e-11
1.54349e-11
1.28083e-11
1.06028e-11
8.75563e-12
7.21268e-12
5.92716e-12
4.8589e-12
3.97347e-12
3.24148e-12
2.63789e-12
2.14147e-12
1.73423e-12
1.40102e-12
1.12907e-12
9.07695e-13
7.27947e-13
5.82371e-13
4.64773e-13
3.70019e-13
2.93864e-13
2.32815e-13
1.83999e-13
1.45065e-13
1.1409e-13
8.9511e-14
7.00559e-14
5.46959e-14
4.25996e-14
3.30976e-14
2.56525e-14
1.98336e-14
1.52974e-14
1.17699e-14
9.03374e-15
6.91679e-15
5.28302e-15
4.02533e-15
3.05957e-15
2.31986e-15
1.7547e-15
1.32399e-15
9.96573e-16
7.48296e-16
5.60504e-16
4.18818e-16
3.12185e-16
2.32135e-16
1.7219e-16
1.27414e-16
9.40523e-17
6.92566e-17
5.08737e-17
3.72792e-17
2.72509e-17
1.98718e-17
1.44555e-17
1.04899e-17
7.59361e-18
5.48362e-18
3.95027e-18
2.83875e-18
2.03502e-18
1.4553e-18
1.03819e-18
7.38822e-19
5.245e-19
3.71442e-19
2.62409e-19
1.8493e-19
1.3001e-19
9.1177e-20
6.37876e-20
4.45172e-20
3.09928e-20
2.15245e-20
1.49124e-20
1.03063e-20
7.10558e-21
4.88693e-21
3.35285e-21
2.29474e-21
1.56673e-21
1.06707e-21
7.24996e-22
4.9138e-22
3.32232e-22
2.24081e-22
1.50769e-22
1.01194e-22
6.77554e-23
4.52555e-23
3.01537e-23
2.00424e-23
1.32892e-23
8.79006e-24
5.79995e-24
3.81766e-24
2.50675e-24
1.64197e-24
1.07291e-24
6.99357e-25
4.54754e-25
2.94982e-25
1.90878e-25
1.23213e-25
7.93408e-26
5.09658e-26
3.26589e-26
2.08769e-26
1.33128e-26
8.46868e-27
5.37406e-27
3.40197e-27
2.14832e-27
1.35334e-27
7.31586e-28
0
0
1.48915e-10
2.18025e-10
2.53305e-10
2.93577e-10
3.39423e-10
3.91472e-10
4.50404e-10
5.16944e-10
5.9187e-10
6.76005e-10
7.7022e-10
8.75428e-10
9.92583e-10
1.12268e-09
1.26673e-09
1.42578e-09
1.60089e-09
1.79314e-09
2.00358e-09
2.23326e-09
2.48321e-09
2.75441e-09
3.04778e-09
3.36419e-09
3.7044e-09
4.06909e-09
4.45879e-09
4.87391e-09
5.3147e-09
5.78124e-09
6.27342e-09
6.79093e-09
7.33321e-09
7.89952e-09
8.48883e-09
9.09988e-09
9.73116e-09
1.03809e-08
1.1047e-08
1.17273e-08
1.24191e-08
1.31197e-08
1.38261e-08
1.4535e-08
1.5243e-08
1.59466e-08
1.6642e-08
1.73255e-08
1.79931e-08
1.86409e-08
1.9265e-08
1.98615e-08
2.04266e-08
2.09567e-08
2.14481e-08
2.18975e-08
2.23019e-08
2.26585e-08
2.29647e-08
2.32184e-08
2.34176e-08
2.35611e-08
2.36477e-08
2.36768e-08
2.36483e-08
2.35622e-08
2.34192e-08
2.32205e-08
2.29673e-08
2.26616e-08
2.23054e-08
2.19014e-08
2.14524e-08
2.09614e-08
2.04317e-08
1.98669e-08
1.92707e-08
1.86468e-08
1.79992e-08
1.73317e-08
1.66484e-08
1.5953e-08
1.52495e-08
1.45415e-08
1.38326e-08
1.31262e-08
1.24255e-08
1.17336e-08
1.10532e-08
1.03869e-08
9.73705e-09
9.10559e-09
8.49435e-09
7.90483e-09
7.33831e-09
6.7958e-09
6.27807e-09
5.78565e-09
5.31887e-09
4.87784e-09
4.46249e-09
4.07255e-09
3.70764e-09
3.36721e-09
3.05058e-09
2.757e-09
2.4856e-09
2.23546e-09
2.0056e-09
1.79499e-09
1.60258e-09
1.42731e-09
1.26812e-09
1.12393e-09
9.93718e-10
8.76448e-10
7.71135e-10
6.76823e-10
5.926e-10
5.17593e-10
4.50979e-10
3.91981e-10
3.39871e-10
2.93972e-10
2.53651e-10
2.18328e-10
1.87466e-10
1.60575e-10
1.37206e-10
1.16952e-10
9.94457e-11
8.43537e-11
7.13778e-11
6.02509e-11
5.07346e-11
4.26173e-11
3.57116e-11
2.98519e-11
2.4893e-11
2.07073e-11
1.71834e-11
1.42245e-11
1.17464e-11
9.67641e-12
7.95178e-12
6.51862e-12
5.33074e-12
4.34871e-12
3.53895e-12
2.87296e-12
2.32662e-12
1.87958e-12
1.51474e-12
1.21775e-12
9.76602e-13
7.813e-13
6.23533e-13
4.96411e-13
3.94244e-13
3.12341e-13
2.4685e-13
1.94617e-13
1.53062e-13
1.20087e-13
9.3986e-14
7.33792e-14
5.7151e-14
4.44033e-14
3.4415e-14
2.66085e-14
2.05227e-14
1.57903e-14
1.21195e-14
9.27947e-15
7.08763e-15
5.40033e-15
4.10469e-15
3.11229e-15
2.35409e-15
1.77625e-15
1.33699e-15
1.00391e-15
7.51966e-16
5.61881e-16
4.18824e-16
3.11429e-16
2.31009e-16
1.70938e-16
1.2618e-16
9.29139e-17
6.82517e-17
5.00134e-17
3.65596e-17
2.66598e-17
1.93934e-17
1.40731e-17
1.01875e-17
7.35677e-18
5.29965e-18
3.80845e-18
2.73017e-18
1.95242e-18
1.39282e-18
9.91198e-19
7.03664e-19
4.98324e-19
3.52046e-19
2.481e-19
1.7442e-19
1.22322e-19
8.5577e-20
5.97239e-20
4.15797e-20
2.88772e-20
2.00064e-20
1.38269e-20
9.5328e-21
6.55628e-21
4.49817e-21
3.07861e-21
2.10191e-21
1.43158e-21
9.72651e-22
6.59234e-22
4.45721e-22
3.00626e-22
2.0227e-22
1.35762e-22
9.09004e-23
6.07147e-23
4.04541e-23
2.68888e-23
1.78288e-23
1.17927e-23
7.7812e-24
5.12177e-24
3.36306e-24
2.20287e-24
1.43941e-24
9.38257e-25
6.10098e-25
3.95748e-25
2.56081e-25
1.65302e-25
1.06444e-25
6.83757e-26
4.38152e-26
2.80084e-26
1.78605e-26
1.13616e-26
7.20985e-27
4.56408e-27
2.88218e-27
1.81565e-27
9.81446e-28
0
0
1.99277e-10
2.91786e-10
3.39001e-10
3.92898e-10
4.54254e-10
5.23912e-10
6.02781e-10
6.91833e-10
7.92107e-10
9.04707e-10
1.0308e-09
1.1716e-09
1.32839e-09
1.50249e-09
1.69528e-09
1.90814e-09
2.1425e-09
2.39978e-09
2.68141e-09
2.9888e-09
3.32331e-09
3.68625e-09
4.07888e-09
4.50234e-09
4.95765e-09
5.44571e-09
5.96725e-09
6.52281e-09
7.11272e-09
7.7371e-09
8.3958e-09
9.08837e-09
9.81412e-09
1.0572e-08
1.13607e-08
1.21785e-08
1.30233e-08
1.38929e-08
1.47844e-08
1.56948e-08
1.66206e-08
1.75582e-08
1.85036e-08
1.94523e-08
2.03999e-08
2.13415e-08
2.22722e-08
2.31869e-08
2.40804e-08
2.49474e-08
2.57826e-08
2.65809e-08
2.73372e-08
2.80465e-08
2.87042e-08
2.93057e-08
2.98469e-08
3.03241e-08
3.07339e-08
3.10734e-08
3.13401e-08
3.15321e-08
3.1648e-08
3.1687e-08
3.16487e-08
3.15335e-08
3.13422e-08
3.10762e-08
3.07374e-08
3.03282e-08
2.98516e-08
2.93109e-08
2.871e-08
2.80528e-08
2.73439e-08
2.65881e-08
2.57901e-08
2.49552e-08
2.40885e-08
2.31952e-08
2.22807e-08
2.13501e-08
2.04086e-08
1.9461e-08
1.85123e-08
1.75669e-08
1.66292e-08
1.57032e-08
1.47927e-08
1.3901e-08
1.30312e-08
1.21861e-08
1.13681e-08
1.05791e-08
9.82094e-09
9.0949e-09
8.40201e-09
7.743e-09
7.11831e-09
6.52807e-09
5.9722e-09
5.45035e-09
4.96198e-09
4.50637e-09
4.08263e-09
3.68972e-09
3.32651e-09
2.99174e-09
2.68411e-09
2.40225e-09
2.14475e-09
1.91019e-09
1.69714e-09
1.50418e-09
1.32991e-09
1.17296e-09
1.03202e-09
9.05802e-10
7.93084e-10
6.92701e-10
6.03551e-10
5.24593e-10
4.54854e-10
3.93426e-10
3.39465e-10
2.92191e-10
2.50889e-10
2.14899e-10
1.83624e-10
1.56519e-10
1.3309e-10
1.12892e-10
9.55259e-11
8.06346e-11
6.78988e-11
5.70354e-11
4.77933e-11
3.99513e-11
3.33147e-11
2.77128e-11
2.29968e-11
1.90368e-11
1.57204e-11
1.29501e-11
1.0642e-11
8.72397e-12
7.13421e-12
5.81995e-12
4.73623e-12
3.84493e-12
3.11375e-12
2.51548e-12
2.02721e-12
1.62973e-12
1.307e-12
1.04563e-12
8.34484e-13
6.64356e-13
5.27623e-13
4.18011e-13
3.30364e-13
2.60459e-13
2.04845e-13
1.60714e-13
1.25783e-13
9.82047e-14
7.64862e-14
5.94257e-14
4.60582e-14
3.56107e-14
2.74659e-14
2.11324e-14
1.62198e-14
1.24189e-14
9.48552e-15
7.22736e-15
5.49338e-15
4.16524e-15
3.15052e-15
2.3772e-15
1.78932e-15
1.34355e-15
1.00637e-15
7.51977e-16
5.60521e-16
4.16792e-16
3.09164e-16
2.2877e-16
1.68869e-16
1.24349e-16
9.13427e-17
6.69341e-17
4.89285e-17
3.56794e-17
2.59546e-17
1.88344e-17
1.36342e-17
9.84573e-18
7.09264e-18
5.09693e-18
3.65385e-18
2.61296e-18
1.86405e-18
1.32654e-18
9.41731e-19
6.66919e-19
4.71151e-19
3.32039e-19
2.33431e-19
1.63707e-19
1.1453e-19
7.99301e-20
5.56472e-20
3.86471e-20
2.67751e-20
1.85049e-20
1.2758e-20
8.77445e-21
6.02002e-21
4.12019e-21
2.81305e-21
1.91592e-21
1.30173e-21
8.82271e-22
5.96521e-22
4.02337e-22
2.70704e-22
1.81694e-22
1.21655e-22
8.12562e-23
5.41409e-23
3.59861e-23
2.38608e-23
1.57826e-23
1.04138e-23
6.85462e-24
4.50088e-24
2.94817e-24
1.92641e-24
1.2557e-24
8.16513e-25
5.29641e-25
3.42722e-25
2.21229e-25
1.42457e-25
9.15094e-26
5.86393e-26
3.74846e-26
2.39033e-26
1.52056e-26
9.64918e-27
6.10827e-27
3.85733e-27
2.42994e-27
1.31343e-27
0
0
2.66022e-10
3.8955e-10
4.52585e-10
5.24539e-10
6.06453e-10
6.99451e-10
8.04744e-10
9.23634e-10
1.05751e-09
1.20783e-09
1.37617e-09
1.56414e-09
1.77347e-09
2.0059e-09
2.26328e-09
2.54746e-09
2.86034e-09
3.20383e-09
3.57982e-09
3.9902e-09
4.43679e-09
4.92134e-09
5.44552e-09
6.01085e-09
6.61872e-09
7.2703e-09
7.96658e-09
8.70829e-09
9.49586e-09
1.03294e-08
1.12088e-08
1.21334e-08
1.31024e-08
1.41142e-08
1.51671e-08
1.62589e-08
1.73868e-08
1.85477e-08
1.97379e-08
2.09533e-08
2.21894e-08
2.34412e-08
2.47032e-08
2.59698e-08
2.72349e-08
2.8492e-08
2.97346e-08
3.09557e-08
3.21485e-08
3.3306e-08
3.44211e-08
3.54869e-08
3.64966e-08
3.74435e-08
3.83215e-08
3.91246e-08
3.98472e-08
4.04843e-08
4.10314e-08
4.14846e-08
4.18406e-08
4.2097e-08
4.22517e-08
4.23037e-08
4.22527e-08
4.20989e-08
4.18435e-08
4.14883e-08
4.1036e-08
4.04897e-08
3.98534e-08
3.91316e-08
3.83293e-08
3.74519e-08
3.65056e-08
3.54964e-08
3.44311e-08
3.33165e-08
3.21594e-08
3.09668e-08
2.97459e-08
2.85035e-08
2.72465e-08
2.59815e-08
2.47149e-08
2.34527e-08
2.22008e-08
2.09646e-08
1.9749e-08
1.85585e-08
1.73973e-08
1.62691e-08
1.5177e-08
1.41237e-08
1.31115e-08
1.21422e-08
1.12171e-08
1.03373e-08
9.50331e-09
8.71532e-09
7.9732e-09
7.2765e-09
6.62451e-09
6.01625e-09
5.45053e-09
4.92598e-09
4.44107e-09
3.99414e-09
3.58344e-09
3.20713e-09
2.86336e-09
2.55021e-09
2.26577e-09
2.00815e-09
1.77549e-09
1.56597e-09
1.3778e-09
1.20929e-09
1.05881e-09
9.24793e-10
8.05773e-10
7.0036e-10
6.07255e-10
5.25245e-10
4.53204e-10
3.90091e-10
3.3495e-10
2.86902e-10
2.45149e-10
2.08961e-10
1.77682e-10
1.50717e-10
1.27532e-10
1.07652e-10
9.06487e-11
7.61453e-11
6.38067e-11
5.33372e-11
4.44769e-11
3.69982e-11
3.0702e-11
2.54152e-11
2.09876e-11
1.72891e-11
1.42077e-11
1.1647e-11
9.52458e-12
7.76996e-12
6.32314e-12
5.13319e-12
4.15703e-12
3.35831e-12
2.70644e-12
2.17579e-12
1.74492e-12
1.39597e-12
1.11408e-12
8.86953e-13
7.04407e-13
5.58069e-13
4.41055e-13
3.47728e-13
2.7348e-13
2.14563e-13