# vtk DataFile Version 3.0
2D field
ASCII
DATASET STRUCTURED_POINTS
DIMENSIONS 257 257 1
ORIGIN 0 0 0
SPACING 0.00390625 0.00390625 1
POINT_DATA 66049
SCALARS temperature double 1
LOOKUP_TABLE default
0
0
0
0
0
0
0
0
0
0
0
0
0
0
0
0
0
0
0
0
0
0
0
0
0
0
0
0
0
0
0
0
0
0
0
0
0
0
0
0
0
0
0
0
0
0
0
0
0
0
0
0
0
0
0
0
0
0
0
0
0
0
0
0
0
0
0
0
0
0
0
0
0
0
0
0
0
0
0
0
0
0
0
0
0
0
0
0
0
0
0
0
0
0
0
0
0
0
0
0
0
0
0
0
0
0
0
0
0
0
0
0
0
0
0
0
0
0
0
0
0
0
0
0
0
0
0
0
0
0
0
0
0
0
0
0
0
0
0
0
0
0
0
0
0
0
0
0
0
0
0
0
0
0
0
0
0
0
0
0
0
0
0
0
0
0
0
0
0
0
0
0
0
0
0
0
0
0
0
0
0
0
0
0
0
0
0
0
0
0
0
0
0
0
0
0
0
0
0
0
0
0
0
0
0
0
0
0
0
0
0
0
0
0
0
0
0
0
0
0
0
0
0
0
0
0
0
0
0
0
0
0
0
0
0
0
0
0
0
0
0
0
0
0
0
0
0
0
0
0
0
0
0
0
0
0
0
0
3.10654e-10
6.29393e-10
9.58428e-10
1.30005e-09
1.65662e-09
2.03057e-09
2.42442e-09
2.84072e-09
3.28209e-09
3.7512e-09
4.25073e-09
4.7834e-09
5.35192e-09
5.95897e-09
6.6072e-09
7.29919e-09
8.03743e-09
8.82431e-09
9.66207e-09
1.05528e-08
1.14983e-08
1.25003e-08
1.35601e-08
1.46789e-08
1.58575e-08
1.70962e-08
1.83953e-08
1.97545e-08
2.11729e-08
2.26496e-08
2.41828e-08
2.57707e-08
2.74106e-08
2.90996e-08
3.08341e-08
3.26102e-08
3.44235e-08
3.62689e-08
3.81411e-08
4.00343e-08
4.19422e-08
4.38581e-08
4.5775e-08
4.76855e-08
4.95821e-08
5.14569e-08
5.33019e-08
5.51089e-08
5.68697e-08
5.85762e-08
6.022e-08
6.17932e-08
6.32879e-08
6.46965e-08
6.60118e-08
6.72268e-08
6.83351e-08
6.93306e-08
7.0208e-08
7.09624e-08
7.15896e-08
7.20863e-08
7.24494e-08
7.26771e-08
7.2768e-08
7.27216e-08
7.25382e-08
7.22189e-08
7.17653e-08
7.11801e-08
7.04665e-08
6.96285e-08
6.86708e-08
6.75985e-08
6.64174e-08
6.51339e-08
6.37548e-08
6.22871e-08
6.07385e-08
5.91167e-08
5.74297e-08
5.56856e-08
5.38926e-08
5.2059e-08
5.0193e-08
4.83025e-08
4.63956e-08
4.448e-08
4.25629e-08
4.06517e-08
3.87531e-08
3.68735e-08
3.50189e-08
3.31948e-08
3.14064e-08
2.96583e-08
2.79546e-08
2.62992e-08
2.4695e-08
2.3145e-08
2.16514e-08
2.02159e-08
1.884e-08
1.75247e-08
1.62704e-08
1.50774e-08
1.39455e-08
1.28742e-08
1.18628e-08
1.09103e-08
1.00153e-08
9.17636e-09
8.39184e-09
7.65992e-09
6.97864e-09
6.34596e-09
5.75974e-09
5.21782e-09
4.71796e-09
4.25795e-09
3.83553e-09
3.4485e-09
3.09467e-09
2.77191e-09
2.47812e-09
2.21129e-09
1.96946e-09
1.75078e-09
1.55343e-09
1.37573e-09
1.21606e-09
1.07289e-09
9.44791e-10
8.30415e-10
7.28508e-10
6.379e-10
5.57507e-10
4.86326e-10
4.23432e-10
3.67976e-10
3.19179e-10
2.7633e-10
2.38782e-10
2.05947e-10
1.77291e-10
1.52334e-10
1.30644e-10
1.1183e-10
9.55446e-11
8.14767e-11
6.9349e-11
5.8915e-11
4.99563e-11
4.22799e-11
3.57154e-11
3.01132e-11
2.53418e-11
2.12861e-11
1.78457e-11
1.49331e-11
1.24723e-11
1.03973e-11
8.65115e-12
7.18465e-12
5.95547e-12
4.92725e-12
4.06885e-12
3.35365e-12
2.75894e-12
2.2654e-12
1.85664e-12
1.51875e-12
1.24001e-12
1.01051e-12
8.21933e-13
6.67282e-13
5.40706e-13
4.37311e-13
3.53019e-13
2.84436e-13
2.28743e-13
1.83608e-13
1.47099e-13
1.17628e-13
9.38827e-14
7.47894e-14
5.94664e-14
4.71935e-14
3.73826e-14
2.95553e-14
2.33227e-14
1.83696e-14
1.4441e-14
1.13312e-14
8.87419e-15
6.93681e-15
5.41214e-15
4.21459e-15
3.27582e-15
2.54133e-15
1.96779e-15
1.52081e-15
1.17314e-15
9.03232e-16
6.94108e-16
5.32392e-16
4.07581e-16
3.11439e-16
2.37525e-16
1.8081e-16
1.37376e-16
1.04179e-16
7.88538e-17
5.95721e-17
4.49201e-17
3.38076e-17
2.5396e-17
1.90411e-17
1.42494e-17
1.06433e-17
7.93475e-18
5.90427e-18
4.38506e-18
3.25059e-18
2.40505e-18
1.77608e-18
1.30911e-18
9.63093e-19
7.07189e-19
5.18297e-19
3.79138e-19
2.76817e-19
2.01727e-19
1.46727e-19
1.0652e-19
7.71846e-20
5.58219e-20
4.02952e-20
2.90321e-20
2.08774e-20
1.49848e-20
1.07348e-20
7.67551e-21
5.47745e-21
3.90114e-21
2.77273e-21
1.96629e-21
1.39074e-21
9.80285e-22
6.87423e-22
4.77825e-22
3.26584e-22
2.15449e-22
1.30766e-22
6.19034e-23
0
0
6.3774e-10
1.29208e-09
1.96755e-09
2.66886e-09
3.40086e-09
4.16855e-09
4.97706e-09
5.83168e-09
6.73776e-09
7.70079e-09
8.72627e-09
9.81978e-09
1.09869e-08
1.22331e-08
1.35638e-08
1.49844e-08
1.64999e-08
1.81152e-08
1.9835e-08
2.16635e-08
2.36045e-08
2.56615e-08
2.78371e-08
3.01339e-08
3.25533e-08
3.50963e-08
3.77632e-08
4.05532e-08
4.34651e-08
4.64964e-08
4.9644e-08
5.29036e-08
5.627e-08
5.97372e-08
6.32979e-08
6.6944e-08
7.06663e-08
7.44547e-08
7.82981e-08
8.21845e-08
8.6101e-08
9.0034e-08
9.3969e-08
9.78911e-08
1.01785e-07
1.05633e-07
1.09421e-07
1.1313e-07
1.16745e-07
1.20248e-07
1.23622e-07
1.26852e-07
1.2992e-07
1.32812e-07
1.35512e-07
1.38006e-07
1.40281e-07
1.42325e-07
1.44126e-07
1.45675e-07
1.46962e-07
1.47982e-07
1.48727e-07
1.49195e-07
1.49381e-07
1.49286e-07
1.4891e-07
1.48254e-07
1.47323e-07
1.46122e-07
1.44657e-07
1.42937e-07
1.40971e-07
1.38769e-07
1.36345e-07
1.3371e-07
1.30879e-07
1.27866e-07
1.24687e-07
1.21358e-07
1.17895e-07
1.14314e-07
1.10634e-07
1.0687e-07
1.03039e-07
9.91582e-08
9.52436e-08
9.13111e-08
8.73758e-08
8.34524e-08
7.95549e-08
7.56963e-08
7.1889e-08
6.81445e-08
6.44732e-08
6.08846e-08
5.73873e-08
5.39888e-08
5.06958e-08
4.75139e-08
4.44477e-08
4.15009e-08
3.86764e-08
3.59761e-08
3.34012e-08
3.09521e-08
2.86285e-08
2.64294e-08
2.43531e-08
2.23977e-08
2.05604e-08
1.88381e-08
1.72276e-08
1.57251e-08
1.43265e-08
1.30277e-08
1.18242e-08
1.07117e-08
9.68559e-09
8.74122e-09
7.87404e-09
7.07951e-09
6.35313e-09
5.69053e-09
5.08741e-09
4.53963e-09
4.04319e-09
3.59424e-09
3.18911e-09
2.82431e-09
2.49651e-09
2.2026e-09
1.93962e-09
1.70481e-09
1.4956e-09
1.30959e-09
1.14455e-09
9.98414e-10
8.69296e-10
7.55447e-10
6.5527e-10
5.67303e-10
4.90218e-10
4.22808e-10
3.63978e-10
3.12743e-10
2.68212e-10
2.29588e-10
1.96154e-10
1.67273e-10
1.42375e-10
1.20954e-10
1.02562e-10
8.6802e-11
7.33251e-11
6.18237e-11
5.20279e-11
4.37015e-11
3.66383e-11
3.06586e-11
2.56064e-11
2.13464e-11
1.77614e-11
1.47506e-11
1.2227e-11
1.01161e-11
8.35372e-12
6.88536e-12
5.66438e-12
4.65111e-12
3.81187e-12
3.11817e-12
2.54588e-12
2.0747e-12
1.68753e-12
1.37002e-12
1.11014e-12
8.97862e-13
7.24801e-13
5.83991e-13
4.69646e-13
3.76977e-13
3.0202e-13
2.4151e-13
1.92758e-13
1.53556e-13
1.22096e-13
9.68974e-14
7.6754e-14
6.06831e-14
4.78864e-14
3.77168e-14
2.96507e-14
2.32655e-14
1.82208e-14
1.4243e-14
1.11125e-14
8.65362e-15
6.7261e-15
5.21802e-15
4.04041e-15
3.12265e-15
2.40878e-15
1.8546e-15
1.42521e-15
1.09316e-15
8.36889e-16
6.39482e-16
4.87715e-16
3.71262e-16
2.82079e-16
2.13914e-16
1.61914e-16
1.22323e-16
9.2237e-17
6.94194e-17
5.21474e-17
3.90986e-17
2.92595e-17
2.18549e-17
1.62932e-17
1.21239e-17
9.00436e-18
6.67483e-18
4.9386e-18
3.64707e-18
2.68819e-18
1.97766e-18
1.45218e-18
1.0643e-18
7.7855e-19
5.68438e-19
4.14243e-19
3.01303e-19
2.1874e-19
1.58499e-19
1.14631e-19
8.27473e-20
5.96183e-20
4.28727e-20
3.0772e-20
2.20446e-20
1.57621e-20
1.12483e-20
8.01129e-21
5.69403e-21
4.03796e-21
2.85603e-21
2.01312e-21
1.4117e-21
9.81273e-22
6.70683e-22
4.42454e-22
2.68546e-22
1.27128e-22
0
0
9.98425e-10
2.02283e-09
3.08033e-09
4.17828e-09
5.32427e-09
6.52614e-09
7.79192e-09
9.12987e-09
1.05484e-08
1.20561e-08
1.36615e-08
1.53735e-08
1.72006e-08
1.91516e-08
2.12349e-08
2.34588e-08
2.58314e-08
2.83603e-08
3.10527e-08
3.39153e-08
3.6954e-08
4.01741e-08
4.35802e-08
4.71758e-08
5.09634e-08
5.49445e-08
5.91195e-08
6.34874e-08
6.8046e-08
7.27915e-08
7.77191e-08
8.2822e-08
8.80922e-08
9.352e-08
9.90943e-08
1.04802e-07
1.10629e-07
1.1656e-07
1.22577e-07
1.28661e-07
1.34792e-07
1.40949e-07
1.4711e-07
1.5325e-07
1.59345e-07
1.6537e-07
1.71299e-07
1.77106e-07
1.82765e-07
1.88249e-07
1.93532e-07
1.98587e-07
2.03391e-07
2.07918e-07
2.12145e-07
2.16049e-07
2.19611e-07
2.2281e-07
2.2563e-07
2.28054e-07
2.3007e-07
2.31666e-07
2.32833e-07
2.33565e-07
2.33857e-07
2.33708e-07
2.33119e-07
2.32093e-07
2.30635e-07
2.28755e-07
2.26461e-07
2.23769e-07
2.20691e-07
2.17245e-07
2.13449e-07
2.09325e-07
2.04893e-07
2.00176e-07
1.952e-07
1.89988e-07
1.84566e-07
1.78961e-07
1.73199e-07
1.67307e-07
1.6131e-07
1.55234e-07
1.49106e-07
1.4295e-07
1.36789e-07
1.30647e-07
1.24546e-07
1.18505e-07
1.12545e-07
1.06683e-07
1.00935e-07
9.53172e-08
8.98422e-08
8.45219e-08
7.93667e-08
7.43853e-08
6.95851e-08
6.49718e-08
6.055e-08
5.63226e-08
5.22916e-08
4.84575e-08
4.48198e-08
4.1377e-08
3.81265e-08
3.50652e-08
3.21888e-08
2.94926e-08
2.69712e-08
2.46189e-08
2.24294e-08
2.0396e-08
1.85119e-08
1.67702e-08
1.51637e-08
1.36853e-08
1.23276e-08
1.10837e-08
9.94654e-09
8.90917e-09
7.96494e-09
7.10735e-09
6.33012e-09
5.62725e-09
4.99298e-09
4.42184e-09
3.90864e-09
3.44848e-09
3.03676e-09
2.66914e-09
2.34159e-09
2.05037e-09
1.79197e-09
1.56318e-09
1.36103e-09
1.18279e-09
1.02594e-09
8.88217e-10
7.67529e-10
6.61987e-10
5.6988e-10
4.89662e-10
4.19942e-10
3.59468e-10
3.07122e-10
2.61903e-10
2.2292e-10
1.89381e-10
1.60585e-10
1.35909e-10
1.14809e-10
9.68005e-11
8.1463e-11
6.84261e-11
5.7367e-11
4.80044e-11
4.0094e-11
3.34238e-11
2.78106e-11
2.30964e-11
1.91451e-11
1.58398e-11
1.30803e-11
1.07812e-11
8.8694e-12
7.28283e-12
5.96876e-12
4.88255e-12
3.98646e-12
3.24868e-12
2.64244e-12
2.14526e-12
1.73834e-12
1.40594e-12
1.13495e-12
9.14464e-13
7.35417e-13
5.90308e-13
4.72936e-13
3.78184e-13
3.01844e-13
2.40458e-13
1.91194e-13
1.51736e-13
1.20193e-13
9.5027e-14
7.49883e-14
5.90633e-14
4.64322e-14
3.64334e-14
2.85336e-14
2.23044e-14
1.74022e-14
1.35517e-14
1.05332e-14
8.17156e-15
6.32742e-15
4.8902e-15
3.77227e-15
2.9044e-15
2.23197e-15
1.71197e-15
1.31064e-15
1.00148e-15
7.63808e-16
5.81434e-16
4.41768e-16
3.35015e-16
2.53578e-16
1.91574e-16
1.44456e-16
1.08721e-16
8.16712e-17
6.1235e-17
4.58255e-17
3.42288e-17
2.55183e-17
1.89884e-17
1.41027e-17
1.04542e-17
7.73498e-18
5.71217e-18
4.21037e-18
3.09753e-18
2.2745e-18
1.66699e-18
1.21943e-18
8.90338e-19
6.48829e-19
4.71934e-19
3.42616e-19
2.48262e-19
1.79551e-19
1.29611e-19
9.33835e-20
6.71543e-20
4.82004e-20
3.45302e-20
2.46897e-20
1.76194e-20
1.2549e-20
8.91926e-21
6.32519e-21
4.4738e-21
3.15346e-21
2.21138e-21
1.53714e-21
1.05061e-21
6.93097e-22
4.20674e-22
1.99145e-22
0
0
1.41138e-09
2.85949e-09
4.35437e-09
5.90643e-09
7.52641e-09
9.22536e-09
1.10147e-08
1.2906e-08
1.49112e-08
1.70424e-08
1.93119e-08
2.17318e-08
2.43146e-08
2.70725e-08
3.00174e-08
3.31611e-08
3.65149e-08
4.00897e-08
4.38955e-08
4.79419e-08
5.22372e-08
5.67891e-08
6.16037e-08
6.66862e-08
7.20402e-08
7.76677e-08
8.35692e-08
8.97434e-08
9.6187e-08
1.02895e-07
1.0986e-07
1.17073e-07
1.24523e-07
1.32195e-07
1.40075e-07
1.48143e-07
1.5638e-07
1.64763e-07
1.73268e-07
1.81868e-07
1.90535e-07
1.99238e-07
2.07945e-07
2.16624e-07
2.2524e-07
2.33756e-07
2.42137e-07
2.50346e-07
2.58344e-07
2.66096e-07
2.73563e-07
2.80709e-07
2.87499e-07
2.93898e-07
2.99873e-07
3.05392e-07
3.10426e-07
3.14949e-07
3.18934e-07
3.22361e-07
3.25211e-07
3.27467e-07
3.29117e-07
3.30151e-07
3.30564e-07
3.30354e-07
3.29521e-07
3.2807e-07
3.2601e-07
3.23352e-07
3.20111e-07
3.16304e-07
3.11954e-07
3.07083e-07
3.01718e-07
2.95888e-07
2.89624e-07
2.82957e-07
2.75922e-07
2.68555e-07
2.60892e-07
2.5297e-07
2.44825e-07
2.36496e-07
2.28019e-07
2.19432e-07
2.1077e-07
2.02067e-07
1.93359e-07
1.84677e-07
1.76053e-07
1.67514e-07
1.59089e-07
1.50803e-07
1.42679e-07
1.34738e-07
1.26998e-07
1.19478e-07
1.12191e-07
1.0515e-07
9.83643e-08
9.18432e-08
8.55928e-08
7.96172e-08
7.39191e-08
6.84994e-08
6.33573e-08
5.84906e-08
5.38959e-08
4.95684e-08
4.55025e-08
4.16912e-08
3.81271e-08
3.48019e-08
3.17067e-08
2.88324e-08
2.61691e-08
2.3707e-08
2.14361e-08
1.93461e-08
1.74269e-08
1.56685e-08
1.4061e-08
1.25946e-08
1.12598e-08
1.00474e-08
8.94873e-09
7.95512e-09
7.05849e-09
6.2511e-09
5.52561e-09
4.87511e-09
4.29306e-09
3.77337e-09
3.31034e-09
2.89864e-09
2.53335e-09
2.20991e-09
1.92413e-09
1.67215e-09
1.45042e-09
1.25571e-09
1.08509e-09
9.35888e-10
8.05674e-10
6.92268e-10
5.93702e-10
5.08208e-10
4.34204e-10
3.70276e-10
3.15163e-10
2.67747e-10
2.27036e-10
1.9215e-10
1.62319e-10
1.36859e-10
1.15175e-10
9.67434e-11
8.1108e-11
6.7871e-11
5.66871e-11
4.72567e-11
3.93206e-11
3.26555e-11
2.70689e-11
2.23957e-11
1.84942e-11
1.52436e-11
1.25405e-11
1.02973e-11
8.43938e-12
6.90359e-12
5.63661e-12
4.59346e-12
3.73628e-12
3.03332e-12
2.45796e-12
1.98797e-12
1.60481e-12
1.29304e-12
1.03988e-12
8.347e-13
6.68738e-13
5.34761e-13
4.26817e-13
3.40017e-13
2.70358e-13
2.14563e-13
1.6996e-13
1.34375e-13
1.06039e-13
8.35207e-14
6.56597e-14
5.15206e-14
4.03497e-14
3.15412e-14
2.4609e-14
1.9164e-14
1.48955e-14
1.15559e-14
8.94804e-15
6.9156e-15
5.33469e-15
4.10739e-15
3.15646e-15
2.42109e-15
1.85353e-15
1.41633e-15
1.08021e-15
8.22294e-16
6.24775e-16
4.73802e-16
3.58631e-16
2.70941e-16
2.04305e-16
1.53766e-16
1.15509e-16
8.66065e-17
6.48129e-17
4.84115e-17
3.60921e-17
2.68567e-17
1.99466e-17
1.47864e-17
1.09404e-17
8.07937e-18
5.95524e-18
4.38125e-18
3.21716e-18
2.35788e-18
1.72484e-18
1.25936e-18
9.17761e-19
6.6755e-19
4.84634e-19
3.51172e-19
2.53981e-19
1.8334e-19
1.32096e-19
9.49942e-20
6.81833e-20
4.88462e-20
3.49261e-20
2.49247e-20
1.77521e-20
1.26175e-20
8.94793e-21
6.32891e-21
4.46111e-21
3.1284e-21
2.17458e-21
1.4863e-21
9.80533e-22
5.95136e-22
2.81735e-22
0
0
1.89759e-09
3.84456e-09
5.85441e-09
7.94114e-09
1.01192e-08
1.24034e-08
1.48091e-08
1.73519e-08
2.00479e-08
2.29132e-08
2.59644e-08
2.9218e-08
3.26905e-08
3.63983e-08
4.03576e-08
4.45841e-08
4.90931e-08
5.38992e-08
5.90159e-08
6.4456e-08
7.02308e-08
7.63504e-08
8.28234e-08
8.96564e-08
9.68543e-08
1.0442e-07
1.12354e-07
1.20655e-07
1.29318e-07
1.38336e-07
1.477e-07
1.57397e-07
1.67412e-07
1.77727e-07
1.8832e-07
1.99167e-07
2.10241e-07
2.21511e-07
2.32945e-07
2.44507e-07
2.56158e-07
2.67858e-07
2.79565e-07
2.91232e-07
3.02815e-07
3.14264e-07
3.25532e-07
3.36567e-07
3.4732e-07
3.57741e-07
3.6778e-07
3.77387e-07
3.86515e-07
3.95118e-07
4.0315e-07
4.1057e-07
4.17338e-07
4.23418e-07
4.28777e-07
4.33384e-07
4.37215e-07
4.40248e-07
4.42466e-07
4.43857e-07
4.44412e-07
4.44129e-07
4.4301e-07
4.4106e-07
4.3829e-07
4.34717e-07
4.30359e-07
4.25242e-07
4.19394e-07
4.12846e-07
4.05634e-07
3.97796e-07
3.89374e-07
3.80412e-07
3.70955e-07
3.61051e-07
3.50749e-07
3.40098e-07
3.29148e-07
3.17951e-07
3.06555e-07
2.9501e-07
2.83365e-07
2.71666e-07
2.59959e-07
2.48287e-07
2.36692e-07
2.25213e-07
2.13887e-07
2.02747e-07
1.91824e-07
1.81148e-07
1.70744e-07
1.60633e-07
1.50836e-07
1.4137e-07
1.32247e-07
1.2348e-07
1.15077e-07
1.07043e-07
9.93827e-08
9.20962e-08
8.51829e-08
7.864e-08
7.24626e-08
6.66446e-08
6.11781e-08
5.6054e-08
5.12621e-08
4.67915e-08
4.26302e-08
3.87657e-08
3.5185e-08
3.18748e-08
2.88215e-08
2.60116e-08
2.34313e-08
2.10671e-08
1.89057e-08
1.69341e-08
1.51394e-08
1.35094e-08
1.20322e-08
1.06963e-08
9.4907e-09
8.40513e-09
7.42969e-09
6.55505e-09
5.77246e-09
5.07371e-09
4.45112e-09
3.89756e-09
3.4064e-09
2.97151e-09
2.58726e-09
2.24844e-09
1.9503e-09
1.6885e-09
1.45908e-09
1.25846e-09
1.08337e-09
9.30878e-10
7.98342e-10
6.83383e-10
5.83873e-10
4.97911e-10
4.23804e-10
3.60045e-10
3.053e-10
2.58391e-10
2.18276e-10
1.84041e-10
1.54882e-10
1.30097e-10
1.09071e-10
9.12713e-11
7.62318e-11
6.35503e-11
5.28783e-11
4.39153e-11
3.64027e-11
3.01182e-11
2.48716e-11
2.05001e-11
1.68651e-11
1.38484e-11
1.13498e-11
9.28443e-12
7.58056e-12
6.17768e-12
5.02491e-12
4.07952e-12
3.30574e-12
2.67366e-12
2.15835e-12
1.73906e-12
1.39858e-12
1.12263e-12
8.99429e-13
7.1924e-13
5.74061e-13
4.57321e-13
3.63631e-13
2.88589e-13
2.286e-13
1.80739e-13
1.42627e-13
1.1234e-13
8.83162e-14
6.92988e-14
5.42736e-14
4.24257e-14
3.31015e-14
2.57777e-14
2.00363e-14
1.55442e-14
1.20364e-14
9.30253e-15
7.17602e-15
5.52515e-15
4.24601e-15
3.25684e-15
2.49338e-15
1.90527e-15
1.45313e-15
1.10618e-15
8.40478e-16
6.37387e-16
4.82455e-16
3.64492e-16
2.7485e-16
2.06862e-16
1.55396e-16
1.16514e-16
8.71954e-17
6.51305e-17
4.8557e-17
3.61324e-17
2.68359e-17
1.98936e-17
1.47193e-17
1.08702e-17
8.0124e-18
5.89474e-18
4.32856e-18
3.17247e-18
2.32075e-18
1.69447e-18
1.23486e-18
8.98205e-19
6.52093e-19
4.72519e-19
3.41747e-19
2.46698e-19
1.77747e-19
1.27824e-19
9.17485e-20
6.57288e-20
4.69981e-20
3.35401e-20
2.38885e-20
1.69792e-20
1.20412e-20
8.51688e-21
6.00343e-21
4.21001e-21
2.92643e-21
2.00021e-21
1.31957e-21
8.00922e-22
3.79154e-22
0
0
2.48125e-09
5.02707e-09
7.65512e-09
1.03837e-08
1.32316e-08
1.62184e-08
1.9364e-08
2.2689e-08
2.62141e-08
2.99607e-08
3.39503e-08
3.82045e-08
4.2745e-08
4.75931e-08
5.277e-08
5.82964e-08
6.41921e-08
7.04761e-08
7.71663e-08
8.42793e-08
9.183e-08
9.98315e-08
1.08295e-07
1.17229e-07
1.2664e-07
1.36533e-07
1.46906e-07
1.57759e-07
1.69086e-07
1.80877e-07
1.93121e-07
2.058e-07
2.18894e-07
2.3238e-07
2.46231e-07
2.60413e-07
2.74891e-07
2.89627e-07
3.04576e-07
3.19693e-07
3.34926e-07
3.50224e-07
3.6553e-07
3.80785e-07
3.95929e-07
4.10898e-07
4.2563e-07
4.40058e-07
4.54117e-07
4.67742e-07
4.80868e-07
4.93429e-07
5.05364e-07
5.16611e-07
5.27113e-07
5.36815e-07
5.45664e-07
5.53613e-07
5.60619e-07
5.66643e-07
5.71651e-07
5.75617e-07
5.78517e-07
5.80336e-07
5.81062e-07
5.80693e-07
5.79229e-07
5.7668e-07
5.73059e-07
5.68387e-07
5.62691e-07
5.56e-07
5.48354e-07
5.39793e-07
5.30364e-07
5.20116e-07
5.09105e-07
4.97387e-07
4.85023e-07
4.72074e-07
4.58605e-07
4.44679e-07
4.30364e-07
4.15724e-07
4.00824e-07
3.8573e-07
3.70504e-07
3.55208e-07
3.39901e-07
3.24641e-07
3.09481e-07
2.94472e-07
2.79663e-07
2.65098e-07
2.50817e-07
2.36858e-07
2.23254e-07
2.10035e-07
1.97226e-07
1.84848e-07
1.72921e-07
1.61458e-07
1.5047e-07
1.39966e-07
1.2995e-07
1.20422e-07
1.11383e-07
1.02828e-07
9.4751e-08
8.71437e-08
7.99959e-08
7.32959e-08
6.70304e-08
6.11848e-08
5.57437e-08
5.06906e-08
4.60086e-08
4.16802e-08
3.76879e-08
3.40136e-08
3.06396e-08
2.75482e-08
2.4722e-08
2.21439e-08
1.97972e-08
1.76658e-08
1.57341e-08
1.39872e-08
1.24108e-08
1.09913e-08
9.71575e-09
8.57203e-09
7.54867e-09
6.63494e-09
5.8208e-09
5.09693e-09
4.45465e-09
3.88596e-09
3.38346e-09
2.94039e-09
2.55051e-09
2.20816e-09
1.90814e-09
1.64578e-09
1.41681e-09
1.21739e-09
1.04407e-09
8.93731e-10
7.63596e-10
6.51178e-10
5.54262e-10
4.70879e-10
3.99285e-10
3.37936e-10
2.85474e-10
2.407e-10
2.02566e-10
1.70151e-10
1.42653e-10
1.19373e-10
9.97041e-11
8.31183e-11
6.91607e-11
5.74382e-11
4.76125e-11
3.93931e-11
3.2531e-11
2.68135e-11
2.20591e-11
1.81135e-11
1.48454e-11
1.21441e-11
9.91546e-12
8.08053e-12
6.57273e-12
5.33617e-12
4.32407e-12
3.4973e-12
2.82327e-12
2.27483e-12
1.82947e-12
1.46852e-12
1.17655e-12
9.40851e-13
7.50946e-13
5.98239e-13
4.75685e-13
3.77521e-13
2.99048e-13
2.36439e-13
1.86584e-13
1.46963e-13
1.15537e-13
9.06584e-14
7.10027e-14
5.55034e-14
4.33053e-14
3.37241e-14
2.62131e-14
2.03363e-14
1.57472e-14
1.21706e-14
9.38859e-15
7.22877e-15
5.55528e-15
4.26113e-15
3.26227e-15
2.49283e-15
1.90127e-15
1.44734e-15
1.0997e-15
8.33981e-16
6.31268e-16
4.76924e-16
3.59634e-16
2.70676e-16
2.03336e-16
1.5246e-16
1.14097e-16
8.52259e-17
6.35394e-17
4.72816e-17
3.5117e-17
2.60326e-17
1.92618e-17
1.42249e-17
1.04853e-17
7.71414e-18
5.66461e-18
4.15173e-18
3.03714e-18
2.21756e-18
1.61608e-18
1.17551e-18
8.53424e-19
6.18414e-19
4.4727e-19
3.22876e-19
2.32636e-19
1.67299e-19
1.20083e-19
8.6029e-20
6.15141e-20
4.38998e-20
3.12675e-20
2.22242e-20
1.5761e-20
1.11481e-20
7.8582e-21
5.51076e-21
3.83065e-21
2.61826e-21
1.72733e-21
1.04842e-21
4.9632e-22
0
0
3.1908e-09
6.46464e-09
9.84422e-09
1.3353e-08
1.70154e-08
2.08563e-08
2.49014e-08
2.91771e-08
3.37102e-08
3.85282e-08
4.36585e-08
4.91292e-08
5.49678e-08
6.12021e-08
6.78592e-08
7.49657e-08
8.2547e-08
9.06277e-08
9.92307e-08
1.08377e-07
1.18087e-07
1.28376e-07
1.39259e-07
1.50747e-07
1.62849e-07
1.75569e-07
1.88908e-07
2.02863e-07
2.17428e-07
2.3259e-07
2.48333e-07
2.64637e-07
2.81474e-07
2.98816e-07
3.16625e-07
3.34861e-07
3.53478e-07
3.72426e-07
3.91648e-07
4.11086e-07
4.30674e-07
4.50344e-07
4.70025e-07
4.89641e-07
5.09113e-07
5.28361e-07
5.47304e-07
5.65856e-07
5.83934e-07
6.01453e-07
6.1833e-07
6.34482e-07
6.49828e-07
6.64291e-07
6.77794e-07
6.90269e-07
7.01647e-07
7.11869e-07
7.20877e-07
7.28623e-07
7.35064e-07
7.40163e-07
7.43893e-07
7.46231e-07
7.47165e-07
7.46691e-07
7.44809e-07
7.41531e-07
7.36876e-07
7.30869e-07
7.23544e-07
7.14942e-07
7.05111e-07
6.94103e-07
6.81979e-07
6.68803e-07
6.54644e-07
6.39578e-07
6.2368e-07
6.0703e-07
5.8971e-07
5.71805e-07
5.53398e-07
5.34573e-07
5.15415e-07
4.96006e-07
4.76428e-07
4.5676e-07
4.37078e-07
4.17456e-07
3.97962e-07
3.78663e-07
3.59621e-07
3.40892e-07
3.22529e-07
3.0458e-07
2.87087e-07
2.70089e-07
2.53618e-07
2.37702e-07
2.22365e-07
2.07625e-07
1.93496e-07
1.79989e-07
1.67109e-07
1.54858e-07
1.43234e-07
1.32233e-07
1.21847e-07
1.12064e-07
1.02873e-07
9.42572e-08
8.62001e-08
7.86831e-08
7.16861e-08
6.51881e-08
5.91673e-08
5.36012e-08
4.84671e-08
4.37422e-08
3.94033e-08
3.54279e-08
3.17934e-08
2.8478e-08
2.54602e-08
2.27192e-08
2.0235e-08
1.79885e-08
1.59612e-08
1.41357e-08
1.24953e-08
1.10244e-08
9.70833e-09
8.53322e-09
7.4862e-09
6.55525e-09
5.72923e-09
4.99785e-09
4.3516e-09
3.78177e-09
3.28035e-09
2.84004e-09
2.45419e-09
2.11676e-09
1.82228e-09
1.5658e-09
1.34288e-09
1.14952e-09
9.82147e-10
8.37559e-10
7.12908e-10
6.05662e-10
5.13578e-10
4.34672e-10
3.67194e-10
3.09606e-10
2.60556e-10
2.18863e-10
1.83494e-10
1.53551e-10
1.28251e-10
1.06917e-10
8.89637e-11
7.38852e-11
6.12464e-11
5.06737e-11
4.18469e-11
3.44923e-11
2.83766e-11
2.33011e-11
1.90973e-11
1.56223e-11
1.27555e-11
1.03951e-11
8.45548e-12
6.86477e-12
5.56278e-12
4.49921e-12
3.63211e-12
2.92658e-12
2.35364e-12
1.88928e-12
1.51367e-12
1.21045e-12
9.66135e-13
7.69675e-13
6.12005e-13
4.85715e-13
3.84756e-13
3.04205e-13
2.40064e-13
1.89088e-13
1.48655e-13
1.16647e-13
9.13572e-14
7.14153e-14
5.57208e-14
4.33931e-14
3.37289e-14
2.61674e-14
2.02627e-14
1.56607e-14
1.2081e-14
9.30186e-15
7.14851e-15
5.48326e-15
4.19796e-15
3.20787e-15
2.44664e-15
1.86253e-15
1.41518e-15
1.07324e-15
8.1238e-16
6.13761e-16
4.62824e-16
3.48344e-16
2.61685e-16
1.96212e-16
1.46842e-16
1.09686e-16
8.17761e-17
6.08527e-17
4.5197e-17
3.35055e-17
2.47912e-17
1.83087e-17
1.34956e-17
9.92898e-18
7.29109e-18
5.34388e-18
3.90928e-18
2.85439e-18
2.0802e-18
1.51312e-18
1.09854e-18
7.96045e-19
5.75749e-19
4.15628e-19
2.99469e-19
2.15364e-19
1.54585e-19
1.10748e-19
7.91899e-20
5.6515e-20
4.02531e-20
2.86113e-20
2.02909e-20
1.43523e-20
1.0117e-20
7.09488e-21
4.93186e-21
3.37098e-21
2.22393e-21
1.34985e-21
6.3902e-22
0
0
4.06006e-09
8.22577e-09
1.2526e-08
1.69907e-08
2.16508e-08
2.6538e-08
3.1685e-08
3.71255e-08
4.28935e-08
4.90238e-08
5.55517e-08
6.25125e-08
6.99416e-08
7.7874e-08
8.63443e-08
9.53863e-08
1.05033e-07
1.15314e-07
1.2626e-07
1.37898e-07
1.50252e-07
1.63343e-07
1.7719e-07
1.91807e-07
2.07204e-07
2.23388e-07
2.4036e-07
2.58116e-07
2.76647e-07
2.95938e-07
3.15968e-07
3.36711e-07
3.58134e-07
3.80197e-07
4.02856e-07
4.26058e-07
4.49744e-07
4.73851e-07
4.98308e-07
5.23038e-07
5.4796e-07
5.72987e-07
5.98026e-07
6.22983e-07
6.47757e-07
6.72247e-07
6.96347e-07
7.19951e-07
7.42951e-07
7.65241e-07
7.86713e-07
8.07263e-07
8.26788e-07
8.45188e-07
8.62369e-07
8.7824e-07
8.92717e-07
9.05721e-07
9.17183e-07
9.27038e-07
9.35233e-07
9.41721e-07
9.46466e-07
9.49442e-07
9.50631e-07
9.50027e-07
9.47633e-07
9.43463e-07
9.37541e-07
9.29899e-07
9.2058e-07
9.09637e-07
8.97128e-07
8.83124e-07
8.67699e-07
8.50936e-07
8.32923e-07
8.13754e-07
7.93528e-07
7.72345e-07
7.5031e-07
7.27529e-07
7.0411e-07
6.8016e-07
6.55785e-07
6.31092e-07
6.06183e-07
5.8116e-07
5.56118e-07
5.31153e-07
5.06351e-07
4.81797e-07
4.5757e-07
4.33741e-07
4.10378e-07
3.87541e-07
3.65284e-07
3.43657e-07
3.227e-07
3.0245e-07
2.82936e-07
2.64181e-07
2.46205e-07
2.29019e-07
2.12631e-07
1.97043e-07
1.82254e-07
1.68256e-07
1.55041e-07
1.42594e-07
1.30899e-07
1.19937e-07
1.09685e-07
1.0012e-07
9.12175e-08
8.29494e-08
7.52884e-08
6.82061e-08
6.16734e-08
5.56612e-08
5.01404e-08
4.50819e-08
4.04572e-08
3.62385e-08
3.23984e-08
2.89106e-08
2.57496e-08
2.2891e-08
2.03113e-08
1.79883e-08
1.59009e-08
1.40292e-08
1.23545e-08
1.08591e-08
9.52679e-09
8.34212e-09
7.29099e-09
6.36027e-09
5.53789e-09
4.81274e-09
4.17465e-09
3.61433e-09
3.1233e-09
2.69389e-09
2.31913e-09
1.99273e-09
1.70904e-09
1.46297e-09
1.24997e-09
1.06596e-09
9.07321e-10
7.70834e-10
6.53642e-10
5.5322e-10
4.67343e-10
3.9405e-10
3.31625e-10
2.78562e-10
2.33547e-10
1.95437e-10
1.63237e-10
1.36085e-10
1.13234e-10
9.40428e-11
7.79565e-11
6.44997e-11
5.3265e-11
4.3904e-11
3.61199e-11
2.96597e-11
2.43089e-11
1.98858e-11
1.62367e-11
1.32322e-11
1.07633e-11
8.7385e-12
7.08119e-12
5.72736e-12
4.62361e-12
3.72551e-12
2.99619e-12
2.40508e-12
1.92695e-12
1.54095e-12
1.22994e-12
9.79844e-13
7.79128e-13
6.18356e-13
4.89831e-13
3.87287e-13
3.0563e-13
2.40734e-13
1.89259e-13
1.4851e-13
1.16313e-13
9.09248e-14
7.09435e-14
5.52485e-14
4.29444e-14
3.33173e-14
2.57994e-14
1.99401e-14
1.53824e-14
1.1844e-14
9.10222e-15
6.98192e-15
5.34539e-15
4.08472e-15
3.11545e-15
2.37169e-15
1.80207e-15
1.36666e-15
1.0345e-15
7.8158e-16
5.89379e-16
4.43602e-16
3.33249e-16
2.49873e-16
1.87003e-16
1.39686e-16
1.04144e-16
7.74987e-17
5.75611e-17
4.26718e-17
3.1574e-17
2.33181e-17
1.71883e-17
1.26459e-17
9.28633e-18
6.80634e-18
4.9792e-18
3.63564e-18
2.64959e-18
1.92731e-18
1.39927e-18
1.01398e-18
7.3338e-19
5.29427e-19
3.81468e-19
2.74338e-19
1.96919e-19
1.41078e-19
1.00879e-19
7.19946e-20
5.12792e-20
3.6449e-20
2.58497e-20
1.82845e-20
1.28889e-20
9.03891e-21
6.28329e-21
4.29474e-21
2.8334e-21
1.71978e-21
8.14151e-22
0
0
5.12958e-09
1.03926e-08
1.58257e-08
2.14665e-08
2.7354e-08
3.35286e-08
4.00314e-08
4.69049e-08
5.41922e-08
6.19373e-08
7.01846e-08
7.89788e-08
8.83645e-08
9.83861e-08
1.09087e-07
1.20511e-07
1.32697e-07
1.45687e-07
1.59515e-07
1.74218e-07
1.89825e-07
2.06363e-07
2.23857e-07
2.42323e-07
2.61775e-07
2.82221e-07
3.03662e-07
3.26093e-07
3.49503e-07
3.73873e-07
3.99178e-07
4.25382e-07
4.52446e-07
4.80319e-07
5.08943e-07
5.38254e-07
5.68177e-07
5.98631e-07
6.29527e-07
6.60769e-07
6.92252e-07
7.23868e-07
7.555e-07
7.87027e-07
8.18324e-07
8.49261e-07
8.79706e-07
9.09525e-07
9.38581e-07
9.66739e-07
9.93864e-07
1.01982e-06
1.04449e-06
1.06773e-06
1.08944e-06
1.10949e-06
1.12778e-06
1.14421e-06
1.15868e-06
1.17113e-06
1.18149e-06
1.18968e-06
1.19568e-06
1.19944e-06
1.20094e-06
1.20018e-06
1.19715e-06
1.19189e-06
1.18441e-06
1.17475e-06
1.16298e-06
1.14916e-06
1.13336e-06
1.11567e-06
1.09618e-06
1.075e-06
1.05225e-06
1.02804e-06
1.00248e-06
9.75724e-07
9.47888e-07
9.1911e-07
8.89526e-07
8.5927e-07
8.28479e-07
7.97284e-07
7.65818e-07
7.34206e-07
7.02572e-07
6.71033e-07
6.39701e-07
6.08682e-07
5.78076e-07
5.47973e-07
5.18458e-07
4.89608e-07
4.61491e-07
4.34168e-07
4.07693e-07
3.82111e-07
3.57458e-07
3.33765e-07
3.11055e-07
2.89343e-07
2.68639e-07
2.48947e-07
2.30262e-07
2.12579e-07
1.95883e-07
1.80158e-07
1.65383e-07
1.51533e-07
1.38581e-07
1.26497e-07
1.15249e-07
1.04803e-07
9.51244e-08
8.61765e-08
7.7923e-08
7.03271e-08
6.33518e-08
5.69607e-08
5.11178e-08
4.57876e-08
4.09359e-08
3.65292e-08
3.25354e-08
2.89235e-08
2.56641e-08
2.2729e-08
2.00916e-08
1.77268e-08
1.56107e-08
1.37214e-08
1.20379e-08
1.0541e-08
9.21287e-09
8.03687e-09
6.99775e-09
6.08148e-09
5.27521e-09
4.56719e-09
3.94674e-09
3.40414e-09
2.93059e-09
2.51816e-09
2.15968e-09
1.84874e-09
1.57958e-09
1.34706e-09
1.14659e-09
9.74119e-10
8.26027e-10
6.99126e-10
5.90604e-10
4.97984e-10
4.19097e-10
3.5204e-10
2.95154e-10
2.46993e-10
2.063e-10
1.71986e-10
1.43108e-10
1.18855e-10
9.8525e-11
8.15183e-11
6.73198e-11
5.54893e-11
4.56515e-11
3.74868e-11
3.07242e-11
2.5134e-11
2.05221e-11
1.67248e-11
1.36043e-11
1.10452e-11
8.95046e-12
7.23931e-12
5.84424e-12
4.70908e-12
3.78725e-12
3.04011e-12
2.43575e-12
1.94784e-12
1.55473e-12
1.2386e-12
9.84891e-13
7.81668e-13
6.19205e-13
4.89581e-13
3.86361e-13
3.04326e-13
2.39256e-13
1.87743e-13
1.47043e-13
1.14948e-13
8.96884e-14
6.98472e-14
5.42924e-14
4.21218e-14
3.26176e-14
2.52101e-14
1.9448e-14
1.49745e-14
1.15082e-14
8.82757e-15
6.75851e-15
5.16461e-15
3.93915e-15
2.99877e-15
2.27857e-15
1.72805e-15
1.30807e-15
9.88279e-16
7.45257e-16
5.60931e-16
4.21396e-16
3.15971e-16
2.36473e-16
1.76641e-16
1.31698e-16
9.80037e-17
7.27919e-17
5.39635e-17
3.99295e-17
2.94892e-17
2.17375e-17
1.59931e-17
1.17444e-17
8.60808e-18
6.29734e-18
4.59817e-18
3.35111e-18
2.43763e-18
1.7698e-18
1.28249e-18
9.27603e-19
6.69645e-19
4.82506e-19
3.47005e-19
2.49082e-19
1.78452e-19
1.27605e-19
9.10699e-20
6.48667e-20
4.61076e-20
3.27e-20
2.31303e-20
1.6305e-20
1.14348e-20
7.94884e-21
5.43324e-21
3.58454e-21
2.17572e-21
1.03e-21
0
0
6.4482e-09
1.30642e-08
1.98938e-08
2.69847e-08
3.43857e-08
4.21474e-08
5.03218e-08
5.8962e-08
6.81225e-08
7.78583e-08
8.82254e-08
9.92799e-08
1.11078e-07
1.23675e-07
1.37127e-07
1.51486e-07
1.66805e-07
1.83132e-07
2.00515e-07
2.18996e-07
2.38613e-07
2.59402e-07
2.8139e-07
3.04601e-07
3.29052e-07
3.54752e-07
3.81702e-07
4.09897e-07
4.39322e-07
4.69955e-07
5.01761e-07
5.34699e-07
5.68716e-07
6.0375e-07
6.39729e-07
6.76571e-07
7.14182e-07
7.5246e-07
7.91294e-07
8.30562e-07
8.70135e-07
9.09873e-07
9.49632e-07
9.89259e-07
1.0286e-06
1.06748e-06
1.10575e-06
1.14323e-06
1.17975e-06
1.21514e-06
1.24924e-06
1.28187e-06
1.31287e-06
1.34208e-06
1.36936e-06
1.39457e-06
1.41755e-06
1.4382e-06
1.4564e-06
1.47205e-06
1.48506e-06
1.49537e-06
1.5029e-06
1.50763e-06
1.50952e-06
1.50856e-06
1.50476e-06
1.49814e-06
1.48874e-06
1.4766e-06
1.46181e-06
1.44443e-06
1.42458e-06
1.40234e-06
1.37785e-06
1.35123e-06
1.32263e-06
1.2922e-06
1.26008e-06
1.22645e-06
1.19146e-06
1.15529e-06
1.11811e-06
1.08008e-06
1.04138e-06
1.00217e-06
9.62618e-07
9.22884e-07
8.83123e-07
8.43481e-07
8.04099e-07
7.65111e-07
7.2664e-07
6.88803e-07
6.51704e-07
6.15441e-07
5.801e-07
5.45757e-07
5.12479e-07
4.80322e-07
4.49335e-07
4.19553e-07
3.91007e-07
3.63716e-07
3.37692e-07
3.12938e-07
2.89452e-07
2.67224e-07
2.46237e-07
2.26471e-07
2.07898e-07
1.90489e-07
1.74208e-07
1.59018e-07
1.44879e-07
1.31748e-07
1.19582e-07
1.08334e-07
9.79584e-08
8.84098e-08
7.96415e-08
7.16074e-08
6.42623e-08
5.75619e-08
5.14628e-08
4.59231e-08
4.09024e-08
3.63619e-08
3.22644e-08
2.85747e-08
2.52591e-08
2.22862e-08
1.9626e-08
1.72507e-08
1.51343e-08
1.32525e-08
1.15828e-08
1.01043e-08
8.79796e-09
7.64602e-09
6.63237e-09
5.74224e-09
4.96219e-09
4.28001e-09
3.68465e-09
3.16611e-09
2.71541e-09
2.32448e-09
1.98607e-09
1.69372e-09
1.44168e-09
1.22483e-09
1.03863e-09
8.79072e-10
7.42622e-10
6.26168e-10
5.26978e-10
4.42664e-10
3.71137e-10
3.1058e-10
2.59413e-10
2.16266e-10
1.79955e-10
1.49458e-10
1.23895e-10
1.0251e-10