# vtk DataFile Version 3.0
2D field
ASCII
DATASET STRUCTURED_POINTS
DIMENSIONS 257 257 1
ORIGIN 0 0 0
SPACING 0.00390625 0.00390625 1
POINT_DATA 66049
SCALARS temperature double 1
LOOKUP_TABLE default
0
0
0
0
0
0
0
0
0
0
0
0
0
0
0
0
0
0
0
0
0
0
0
0
0
0
0
0
0
0
0
0
0
0
0
0
0
0
0
0
0
0
0
0
0
0
0
0
0
0
0
0
0
0
0
0
0
0
0
0
0
0
0
0
0
0
0
0
0
0
0
0
0
0
0
0
0
0
0
0
0
0
0
0
0
0
0
0
0
0
0
0
0
0
0
0
0
0
0
0
0
0
0
0
0
0
0
0
0
0
0
0
0
0
0
0
0
0
0
0
0
0
0
0
0
0
0
0
0
0
0
0
0
0
0
0
0
0
0
0
0
0
0
0
0
0
0
0
0
0
0
0
0
0
0
0
0
0
0
0
0
0
0
0
0
0
0
0
0
0
0
0
0
0
0
0
0
0
0
0
0
0
0
0
0
0
0
0
0
0
0
0
0
0
0
0
0
0
0
0
0
0
0
0
0
0
0
0
0
0
0
0
0
0
0
0
0
0
0
0
0
0
0
0
0
0
0
0
0
0
0
0
0
0
0
0
0
0
0
0
0
0
0
0
0
0
0
0
0
0
0
0
0
0
0
0
0
0
6.10733e-10
1.23698e-09
1.88268e-09
2.55192e-09
3.24889e-09
3.97787e-09
4.74326e-09
5.54954e-09
6.40123e-09
7.30291e-09
8.25918e-09
9.27461e-09
1.03538e-08
1.15012e-08
1.27211e-08
1.40179e-08
1.53956e-08
1.68581e-08
1.84089e-08
2.00513e-08
2.17881e-08
2.3622e-08
2.55551e-08
2.75887e-08
2.97241e-08
3.19616e-08
3.43011e-08
3.67418e-08
3.92822e-08
4.19199e-08
4.46521e-08
4.74749e-08
5.03838e-08
5.33735e-08
5.64377e-08
5.95695e-08
6.27612e-08
6.60042e-08
6.92892e-08
7.26063e-08
7.59448e-08
7.92933e-08
8.264e-08
8.59725e-08
8.9278e-08
9.25433e-08
9.5755e-08
9.88994e-08
1.01963e-07
1.04931e-07
1.07792e-07
1.1053e-07
1.13134e-07
1.1559e-07
1.17886e-07
1.20011e-07
1.21954e-07
1.23705e-07
1.25254e-07
1.26595e-07
1.27719e-07
1.2862e-07
1.29294e-07
1.29737e-07
1.29947e-07
1.29923e-07
1.29664e-07
1.29172e-07
1.2845e-07
1.27502e-07
1.26332e-07
1.24947e-07
1.23355e-07
1.21563e-07
1.19581e-07
1.17419e-07
1.15088e-07
1.126e-07
1.09967e-07
1.07202e-07
1.04318e-07
1.01329e-07
9.8247e-08
9.50874e-08
9.18633e-08
8.85885e-08
8.52763e-08
8.19398e-08
7.85919e-08
7.52447e-08
7.19101e-08
6.85993e-08
6.53229e-08
6.20907e-08
5.8912e-08
5.57951e-08
5.27479e-08
4.9777e-08
4.68888e-08
4.40884e-08
4.13805e-08
3.87688e-08
3.62564e-08
3.38457e-08
3.15382e-08
2.9335e-08
2.72365e-08
2.52424e-08
2.33522e-08
2.15645e-08
1.98777e-08
1.82898e-08
1.67984e-08
1.54007e-08
1.40938e-08
1.28746e-08
1.17396e-08
1.06854e-08
9.70823e-09
8.80453e-09
7.97054e-09
7.20252e-09
6.49676e-09
5.84957e-09
5.25735e-09
4.71656e-09
4.22375e-09
3.77561e-09
3.36892e-09
3.00061e-09
2.66774e-09
2.36752e-09
2.09729e-09
1.85454e-09
1.63694e-09
1.44225e-09
1.26843e-09
1.11354e-09
9.75799e-10
8.53552e-10
7.45272e-10
6.49553e-10
5.65105e-10
4.90748e-10
4.25405e-10
3.68096e-10
3.17933e-10
2.74109e-10
2.359e-10
2.02649e-10
1.73771e-10
1.48739e-10
1.27083e-10
1.08384e-10
9.2269e-11
7.84083e-11
6.65093e-11
5.63141e-11
4.75956e-11
4.01541e-11
3.38149e-11
2.8425e-11
2.38511e-11
1.9977e-11
1.67019e-11
1.39385e-11
1.16113e-11
9.65512e-12
8.01401e-12
6.63982e-12
5.49133e-12
4.53328e-12
3.7356e-12
3.07273e-12
2.5229e-12
2.06772e-12
1.69159e-12
1.38138e-12
1.12602e-12
9.16206e-13
7.44137e-13
6.03291e-13
4.88218e-13
3.9438e-13
3.18002e-13
2.55952e-13
2.05636e-13
1.64913e-13
1.32015e-13
1.05489e-13
8.41398e-14
6.699e-14
5.32393e-14
4.22346e-14
3.34439e-14
2.6435e-14
2.08571e-14
1.64264e-14
1.29135e-14
1.01335e-14
7.93752e-15
6.20619e-15
4.84371e-15
3.7735e-15
2.93443e-15
2.2778e-15
1.7649e-15
1.36501e-15
1.05382e-15
8.12098e-16
6.24689e-16
4.79657e-16
3.6763e-16
2.81257e-16
2.14787e-16
1.63729e-16
1.24582e-16
9.46229e-17
7.17382e-17
5.42895e-17
4.10104e-17
3.09232e-17
2.32748e-17
1.74864e-17
1.31138e-17
9.81669e-18
7.33525e-18
5.47112e-18
4.07333e-18
3.02715e-18
2.24559e-18
1.6628e-18
1.22902e-18
9.06755e-19
6.67778e-19
4.90892e-19
3.60206e-19
2.63832e-19
1.92892e-19
1.4077e-19
1.02545e-19
7.45632e-20
5.41171e-20
3.92043e-20
2.83463e-20
2.0454e-20
1.47259e-20
1.05732e-20
7.5641e-21
5.38149e-21
3.79246e-21
2.62502e-21
1.75076e-21
1.07172e-21
5.10127e-22
0
0
1.25088e-09
2.53354e-09
3.85606e-09
5.22677e-09
6.65426e-09
8.14734e-09
9.71499e-09
1.13664e-08
1.31108e-08
1.49576e-08
1.69161e-08
1.89959e-08
2.12062e-08
2.35562e-08
2.60549e-08
2.87109e-08
3.15327e-08
3.4528e-08
3.77042e-08
4.1068e-08
4.46254e-08
4.83815e-08
5.23405e-08
5.65057e-08
6.08792e-08
6.5462e-08
7.02536e-08
7.52524e-08
8.04554e-08
8.58578e-08
9.14536e-08
9.72351e-08
1.03193e-07
1.09316e-07
1.15592e-07
1.22006e-07
1.28543e-07
1.35185e-07
1.41913e-07
1.48707e-07
1.55545e-07
1.62403e-07
1.69257e-07
1.76082e-07
1.82853e-07
1.8954e-07
1.96118e-07
2.02558e-07
2.08832e-07
2.14912e-07
2.2077e-07
2.26379e-07
2.31711e-07
2.36741e-07
2.41444e-07
2.45797e-07
2.49776e-07
2.53362e-07
2.56536e-07
2.59281e-07
2.61583e-07
2.63429e-07
2.6481e-07
2.65718e-07
2.66147e-07
2.66097e-07
2.65567e-07
2.6456e-07
2.63081e-07
2.61139e-07
2.58743e-07
2.55907e-07
2.52645e-07
2.48976e-07
2.44916e-07
2.40489e-07
2.35715e-07
2.30619e-07
2.25227e-07
2.19564e-07
2.13657e-07
2.07534e-07
2.01223e-07
1.94751e-07
1.88148e-07
1.81441e-07
1.74657e-07
1.67824e-07
1.60967e-07
1.54112e-07
1.47282e-07
1.40501e-07
1.33791e-07
1.27171e-07
1.2066e-07
1.14277e-07
1.08035e-07
1.01951e-07
9.60353e-08
9.02998e-08
8.47536e-08
7.94046e-08
7.42589e-08
6.93213e-08
6.45953e-08
6.00829e-08
5.57848e-08
5.17008e-08
4.78292e-08
4.41678e-08
4.0713e-08
3.74607e-08
3.4406e-08
3.15434e-08
2.88668e-08
2.63696e-08
2.40449e-08
2.18856e-08
1.98843e-08
1.80334e-08
1.63252e-08
1.47522e-08
1.33067e-08
1.19811e-08
1.07681e-08
9.6605e-09
8.65114e-09
7.73326e-09
6.90029e-09
6.14592e-09
5.46413e-09
4.84921e-09
4.29572e-09
3.79854e-09
3.35283e-09
2.95408e-09
2.59805e-09
2.2808e-09
1.99868e-09
1.74829e-09
1.52651e-09
1.33045e-09
1.15748e-09
1.00518e-09
8.71344e-10
7.53962e-10
6.51215e-10
5.61453e-10
4.8319e-10
4.15085e-10
3.55935e-10
3.04662e-10
2.60304e-10
2.22003e-10
1.88995e-10
1.60605e-10
1.36232e-10
1.15349e-10
9.74911e-11
8.22488e-11
6.92642e-11
5.82241e-11
4.88551e-11
4.09197e-11
3.42113e-11
2.85509e-11
2.3784e-11
1.97772e-11
1.64156e-11
1.36008e-11
1.12483e-11
9.28587e-12
7.65196e-12
6.29414e-12
5.1679e-12
4.23551e-12
3.46507e-12
2.82964e-12
2.30656e-12
1.87677e-12
1.52431e-12
1.2358e-12
1.00008e-12
8.07864e-13
6.51409e-13
5.24304e-13
4.21236e-13
3.37818e-13
2.70428e-13
2.1609e-13
1.72358e-13
1.37228e-13
1.0906e-13
8.65172e-14
6.85097e-14
5.41521e-14
4.27259e-14
3.36497e-14
2.64535e-14
2.07587e-14
1.62603e-14
1.27136e-14
9.92256e-15
7.73021e-15
6.01134e-15
4.66621e-15
3.61551e-15
2.79633e-15
2.15883e-15
1.66365e-15
1.27973e-15
9.82626e-16
7.53129e-16
5.76187e-16
4.40017e-16
3.35419e-16
2.55222e-16
1.93848e-16
1.46966e-16
1.1122e-16
8.40163e-17
6.33513e-17
4.76825e-17
3.5824e-17
2.68659e-17
2.01114e-17
1.50277e-17
1.12087e-17
8.34508e-18
6.20179e-18
4.6006e-18
3.40663e-18
2.51794e-18
1.85771e-18
1.36811e-18
1.00572e-18
7.37979e-19
5.40532e-19
3.95193e-19
2.88408e-19
2.10094e-19
1.52766e-19
1.10876e-19
8.03225e-20
5.80768e-20
4.19069e-20
3.0171e-20
2.1663e-20
1.54978e-20
1.1026e-20
7.77028e-21
5.37835e-21
3.5871e-21
2.19584e-21
1.0452e-21
0
0
1.95106e-09
3.95168e-09
6.01447e-09
8.15243e-09
1.0379e-08
1.27078e-08
1.51529e-08
1.77286e-08
2.04494e-08
2.33299e-08
2.63848e-08
2.96286e-08
3.30761e-08
3.67414e-08
4.06387e-08
4.47813e-08
4.91825e-08
5.38543e-08
5.88083e-08
6.40548e-08
6.96033e-08
7.54617e-08
8.16366e-08
8.8133e-08
9.49544e-08
1.02102e-07
1.09576e-07
1.17372e-07
1.25487e-07
1.33913e-07
1.42641e-07
1.51658e-07
1.6095e-07
1.70501e-07
1.80289e-07
1.90293e-07
2.00489e-07
2.10848e-07
2.21342e-07
2.31938e-07
2.42602e-07
2.53299e-07
2.63989e-07
2.74635e-07
2.85194e-07
2.95624e-07
3.05883e-07
3.15928e-07
3.25713e-07
3.35196e-07
3.44333e-07
3.5308e-07
3.61397e-07
3.69242e-07
3.76578e-07
3.83366e-07
3.89572e-07
3.95165e-07
4.00116e-07
4.04397e-07
4.07987e-07
4.10867e-07
4.1302e-07
4.14436e-07
4.15107e-07
4.15028e-07
4.14202e-07
4.12631e-07
4.10325e-07
4.07295e-07
4.03559e-07
3.99136e-07
3.94049e-07
3.88325e-07
3.81994e-07
3.75088e-07
3.67643e-07
3.59696e-07
3.51286e-07
3.42453e-07
3.3324e-07
3.2369e-07
3.13847e-07
3.03754e-07
2.93455e-07
2.82994e-07
2.72414e-07
2.61756e-07
2.51061e-07
2.40369e-07
2.29717e-07
2.19141e-07
2.08675e-07
1.9835e-07
1.88196e-07
1.78239e-07
1.68505e-07
1.59015e-07
1.49789e-07
1.40843e-07
1.32193e-07
1.2385e-07
1.15824e-07
1.08123e-07
1.00752e-07
9.37137e-08
8.70099e-08
8.064e-08
7.46015e-08
6.88907e-08
6.35022e-08
5.84295e-08
5.36651e-08
4.92002e-08
4.50253e-08
4.11304e-08
3.75045e-08
3.41366e-08
3.10151e-08
2.81281e-08
2.54638e-08
2.30103e-08
2.07556e-08
1.86881e-08
1.67961e-08
1.50684e-08
1.34941e-08
1.20624e-08
1.07631e-08
9.58647e-09
8.52304e-09
7.56389e-09
6.70057e-09
5.92506e-09
5.22985e-09
4.60787e-09
4.05254e-09
3.55769e-09
3.11763e-09
2.72707e-09
2.38113e-09
2.07532e-09
1.80551e-09
1.56795e-09
1.35918e-09
1.17609e-09
1.01582e-09
8.75802e-10
7.53722e-10
6.47488e-10
5.55222e-10
4.75243e-10
4.06051e-10
3.46305e-10
2.94817e-10
2.50531e-10
2.12512e-10
1.79937e-10
1.5208e-10
1.28303e-10
1.08049e-10
9.08267e-11
7.6212e-11
6.38332e-11
5.33685e-11
4.45387e-11
3.71025e-11
3.08521e-11
2.56082e-11
2.12172e-11
1.75474e-11
1.4486e-11
1.19372e-11
9.81898e-12
8.06205e-12
6.60753e-12
5.40563e-12
4.41436e-12
3.59834e-12
2.92787e-12
2.37801e-12
1.92793e-12
1.5602e-12
1.26033e-12
1.01625e-12
8.17962e-13
6.5717e-13
5.27031e-13
4.21898e-13
3.37127e-13
2.689e-13
2.14094e-13
1.70149e-13
1.34979e-13
1.06886e-13
8.44859e-14
6.66596e-14
5.24993e-14
4.12723e-14
3.23874e-14
2.53692e-14
1.98358e-14
1.54813e-14
1.20608e-14
9.37903e-15
7.28036e-15
5.64106e-15
4.36296e-15
3.36833e-15
2.59574e-15
1.99673e-15
1.53317e-15
1.1751e-15
8.9902e-16
6.86558e-16
5.23357e-16
3.98227e-16
3.02466e-16
2.29316e-16
1.73542e-16
1.31095e-16
9.88506e-17
7.44021e-17
5.58989e-17
4.19211e-17
3.13816e-17
2.34492e-17
1.74902e-17
1.30218e-17
9.67742e-18
7.17894e-18
5.31584e-18
3.92912e-18
2.89888e-18
2.1349e-18
1.56941e-18
1.15161e-18
8.43498e-19
6.16701e-19
4.50065e-19
3.27856e-19
2.38396e-19
1.73026e-19
1.25347e-19
9.06324e-20
6.53987e-20
4.70842e-20
3.3807e-20
2.41858e-20
1.72072e-20
1.21264e-20
8.39357e-21
5.59814e-21
3.42691e-21
1.63117e-21
0
0
2.74429e-09
5.55829e-09
8.45973e-09
1.14669e-08
1.45986e-08
1.78743e-08
2.13135e-08
2.49363e-08
2.87633e-08
3.28148e-08
3.71116e-08
4.16743e-08
4.65232e-08
5.16786e-08
5.71602e-08
6.2987e-08
6.91773e-08
7.57483e-08
8.27162e-08
9.00955e-08
9.78995e-08
1.06139e-07
1.14824e-07
1.23962e-07
1.33556e-07
1.43609e-07
1.54121e-07
1.65086e-07
1.765e-07
1.88351e-07
2.00627e-07
2.13309e-07
2.26379e-07
2.39811e-07
2.53578e-07
2.67649e-07
2.81989e-07
2.96559e-07
3.11318e-07
3.26221e-07
3.4122e-07
3.56265e-07
3.71301e-07
3.86273e-07
4.01124e-07
4.15794e-07
4.30224e-07
4.44351e-07
4.58114e-07
4.71451e-07
4.84301e-07
4.96605e-07
5.08302e-07
5.19336e-07
5.29653e-07
5.39201e-07
5.4793e-07
5.55796e-07
5.62759e-07
5.68781e-07
5.7383e-07
5.7788e-07
5.80909e-07
5.82901e-07
5.83844e-07
5.83734e-07
5.82571e-07
5.80362e-07
5.77119e-07
5.72858e-07
5.67603e-07
5.61382e-07
5.54228e-07
5.46178e-07
5.37273e-07
5.27561e-07
5.1709e-07
5.05912e-07
4.94084e-07
4.81661e-07
4.68704e-07
4.55272e-07
4.41428e-07
4.27233e-07
4.12748e-07
3.98035e-07
3.83154e-07
3.68164e-07
3.53122e-07
3.38084e-07
3.23102e-07
3.08227e-07
2.93506e-07
2.78985e-07
2.64703e-07
2.50699e-07
2.37008e-07
2.2366e-07
2.10683e-07
1.98101e-07
1.85935e-07
1.742e-07
1.62912e-07
1.5208e-07
1.41713e-07
1.31814e-07
1.22385e-07
1.13425e-07
1.04932e-07
9.68994e-08
8.93203e-08
8.21855e-08
7.54841e-08
6.9204e-08
6.33319e-08
5.78535e-08
5.27536e-08
4.80164e-08
4.36257e-08
3.9565e-08
3.58175e-08
3.23664e-08
2.91951e-08
2.62869e-08
2.36257e-08
2.11956e-08
1.89811e-08
1.69673e-08
1.51398e-08
1.34847e-08
1.19889e-08
1.06398e-08
9.42539e-09
8.33455e-09
7.35664e-09
6.48175e-09
5.7006e-09
5.00453e-09
4.38552e-09
3.83614e-09
3.34952e-09
2.91935e-09
2.53982e-09
2.20565e-09
1.91198e-09
1.65442e-09
1.42897e-09
1.23202e-09
1.06029e-09
9.10848e-10
7.81056e-10
6.6855e-10
5.71215e-10
4.8717e-10
4.1474e-10
3.5244e-10
2.98958e-10
2.53133e-10
2.13945e-10
1.80497e-10
1.52003e-10
1.27776e-10
1.07216e-10
8.98022e-11
7.50805e-11
6.26587e-11
5.21975e-11
4.34043e-11
3.60272e-11
2.98498e-11
2.46869e-11
2.03801e-11
1.67942e-11
1.38142e-11
1.13425e-11
9.29618e-12
7.60526e-12
6.21066e-12
5.06262e-12
4.11933e-12
3.34573e-12
2.7125e-12
2.19514e-12
1.77324e-12
1.42984e-12
1.15086e-12
9.24632e-13
7.41532e-13
5.93614e-13
4.74342e-13
3.78349e-13
3.01236e-13
2.39406e-13
1.89922e-13
1.50394e-13
1.18877e-13
9.37948e-14
7.38708e-14
5.80738e-14
4.55722e-14
3.56971e-14
2.79113e-14
2.17841e-14
1.69711e-14
1.31976e-14
1.02446e-14
7.93787e-15
6.13942e-15
4.73984e-15
3.65269e-15
2.80979e-15
2.15748e-15
1.65361e-15
1.26512e-15
9.66148e-16
7.36491e-16
5.60407e-16
4.25649e-16
3.2271e-16
2.44222e-16
1.84489e-16
1.39113e-16
1.04707e-16
7.86678e-17
5.8997e-17
4.41647e-17
3.30013e-17
2.4615e-17
1.83265e-17
1.36199e-17
1.01036e-17
7.48155e-18
5.52992e-18
4.07997e-18
3.00474e-18
2.20886e-18
1.62084e-18
1.1872e-18
8.67995e-19
6.33463e-19
4.61459e-19
3.35545e-19
2.43539e-19
1.76431e-19
1.27569e-19
9.20526e-20
6.62744e-20
4.75862e-20
3.40438e-20
2.42209e-20
1.70693e-20
1.1815e-20
7.88012e-21
4.82385e-21
2.29611e-21
0
0
3.66733e-09
7.4278e-09
1.13051e-08
1.53237e-08
1.95088e-08
2.38861e-08
2.84821e-08
3.33235e-08
3.84375e-08
4.38517e-08
4.95936e-08
5.56907e-08
6.21705e-08
6.90597e-08
7.63848e-08
8.41712e-08
9.24432e-08
1.01224e-07
1.10535e-07
1.20396e-07
1.30824e-07
1.41835e-07
1.53441e-07
1.65651e-07
1.78471e-07
1.91905e-07
2.05951e-07
2.20605e-07
2.35856e-07
2.51693e-07
2.68096e-07
2.85043e-07
3.02507e-07
3.20456e-07
3.38852e-07
3.57654e-07
3.76816e-07
3.96285e-07
4.16007e-07
4.35921e-07
4.55964e-07
4.76067e-07
4.96159e-07
5.16165e-07
5.3601e-07
5.55613e-07
5.74894e-07
5.93771e-07
6.12162e-07
6.29983e-07
6.47155e-07
6.63595e-07
6.79225e-07
6.9397e-07
7.07756e-07
7.20513e-07
7.32178e-07
7.42689e-07
7.51993e-07
7.6004e-07
7.66787e-07
7.72199e-07
7.76246e-07
7.78908e-07
7.80168e-07
7.80022e-07
7.78468e-07
7.75517e-07
7.71183e-07
7.6549e-07
7.58469e-07
7.50156e-07
7.40596e-07
7.2984e-07
7.17942e-07
7.04964e-07
6.90973e-07
6.76037e-07
6.60231e-07
6.43632e-07
6.26318e-07
6.08371e-07
5.89871e-07
5.70903e-07
5.51548e-07
5.31888e-07
5.12003e-07
4.91973e-07
4.71874e-07
4.51779e-07
4.3176e-07
4.11883e-07
3.92213e-07
3.72808e-07
3.53724e-07
3.35011e-07
3.16716e-07
2.9888e-07
2.8154e-07
2.64727e-07
2.48468e-07
2.32788e-07
2.17704e-07
2.0323e-07
1.89375e-07
1.76147e-07
1.63548e-07
1.51575e-07
1.40225e-07
1.29492e-07
1.19364e-07
1.09829e-07
1.00874e-07
9.24819e-08
8.46348e-08
7.73139e-08
7.04987e-08
6.41682e-08
5.83008e-08
5.28743e-08
4.78663e-08
4.32545e-08
3.90164e-08
3.51301e-08
3.15737e-08
2.83262e-08
2.53668e-08
2.26756e-08
2.02333e-08
1.80215e-08
1.60225e-08
1.42195e-08
1.25966e-08
1.11388e-08
9.83188e-09
8.66266e-09
7.6187e-09
6.68846e-09
5.86119e-09
5.12697e-09
4.47662e-09
3.90171e-09
3.3945e-09
2.94788e-09
2.55541e-09
2.21118e-09
1.90987e-09
1.64664e-09
1.41712e-09
1.2174e-09
1.04393e-09
8.9356e-10
7.6347e-10
6.51141e-10
5.54335e-10
4.71069e-10
3.99587e-10
3.38339e-10
2.85962e-10
2.41256e-10
2.03172e-10
1.7079e-10
1.4331e-10
1.20034e-10
1.00357e-10
8.37537e-11
6.9771e-11
5.80177e-11
4.81571e-11
3.99001e-11
3.29991e-11
2.72423e-11
2.24492e-11
1.84659e-11
1.51619e-11
1.24266e-11
1.01664e-11
8.30216e-12
6.76755e-12
5.50662e-12
4.47253e-12
3.62606e-12
2.93447e-12
2.3705e-12
1.91145e-12
1.5385e-12
1.23609e-12
9.91316e-13
7.93577e-13
6.34132e-13
5.05806e-13
4.02718e-13
3.20061e-13
2.53908e-13
2.01064e-13
1.5893e-13
1.25398e-13
9.87612e-14
7.7642e-14
6.09284e-14
4.77262e-14
3.73169e-14
2.91252e-14
2.26905e-14
1.76454e-14
1.36973e-14
1.06132e-14
8.2087e-15
6.33744e-15
4.88389e-15
3.75691e-15
2.88475e-15
2.21105e-15
1.69161e-15
1.29186e-15
9.84787e-16
7.49345e-16
5.69159e-16
4.31517e-16
3.26569e-16
2.46697e-16
1.86022e-16
1.40016e-16
1.05197e-16
7.8893e-17
5.90591e-17
4.41314e-17
3.2917e-17
2.45078e-17
1.82138e-17
1.35116e-17
1.00052e-17
7.39534e-18
5.45633e-18
4.01841e-18
2.95406e-18
2.16769e-18
1.58776e-18
1.16087e-18
8.47207e-19
6.17172e-19
4.48775e-19
3.25724e-19
2.35972e-19
1.70623e-19
1.2312e-19
8.8643e-20
6.36478e-20
4.55349e-20
3.23967e-20
2.28313e-20
1.58034e-20
1.05403e-20
6.45234e-21
3.07127e-21
0
0
4.76205e-09
9.64506e-09
1.46798e-08
1.9898e-08
2.53323e-08
3.10163e-08
3.69841e-08
4.32706e-08
4.99111e-08
5.69414e-08
6.43971e-08
7.23141e-08
8.07279e-08
8.96734e-08
9.91847e-08
1.09295e-07
1.20036e-07
1.31437e-07
1.43527e-07
1.56331e-07
1.69872e-07
1.84169e-07
1.99238e-07
2.15092e-07
2.31738e-07
2.49181e-07
2.67419e-07
2.86445e-07
3.06248e-07
3.2681e-07
3.48108e-07
3.70113e-07
3.92788e-07
4.16093e-07
4.39979e-07
4.64392e-07
4.89271e-07
5.1455e-07
5.40157e-07
5.66013e-07
5.92036e-07
6.18138e-07
6.44225e-07
6.70201e-07
6.95967e-07
7.2142e-07
7.46454e-07
7.70964e-07
7.94842e-07
8.17982e-07
8.40276e-07
8.61622e-07
8.81916e-07
9.01061e-07
9.1896e-07
9.35525e-07
9.5067e-07
9.64318e-07
9.76398e-07
9.86846e-07
9.95607e-07
1.00263e-06
1.00789e-06
1.01134e-06
1.01298e-06
1.01279e-06
1.01078e-06
1.00694e-06
1.00132e-06
9.93925e-07
9.84809e-07
9.74017e-07
9.61605e-07
9.47639e-07
9.32192e-07
9.15342e-07
8.97176e-07
8.77784e-07
8.57263e-07
8.35711e-07
8.13231e-07
7.89928e-07
7.6591e-07
7.41281e-07
7.16151e-07
6.90625e-07
6.64807e-07
6.388e-07
6.12703e-07
5.86612e-07
5.60619e-07
5.34811e-07
5.09271e-07
4.84076e-07
4.59297e-07
4.35001e-07
4.11246e-07
3.88087e-07
3.65572e-07
3.43741e-07
3.22632e-07
3.02272e-07
2.82686e-07
2.63892e-07
2.45903e-07
2.28727e-07
2.12367e-07
1.96821e-07
1.82084e-07
1.68147e-07
1.54996e-07
1.42616e-07
1.30988e-07
1.20091e-07
1.09901e-07
1.00395e-07
9.15456e-08
8.33256e-08
7.57067e-08
6.86604e-08
6.21574e-08
5.61689e-08
5.06657e-08
4.56191e-08
4.10011e-08
3.67841e-08
3.29412e-08
2.94465e-08
2.62751e-08
2.34029e-08
2.0807e-08
1.84657e-08
1.63583e-08
1.44652e-08
1.27681e-08
1.12497e-08
9.89404e-09
8.68601e-09
7.61171e-09
6.65824e-09
5.81368e-09
5.06709e-09
4.4084e-09
3.8284e-09
3.31871e-09
2.87168e-09
2.48038e-09
2.13853e-09
1.84046e-09
1.58108e-09
1.3558e-09
1.16051e-09
9.91564e-10
8.4568e-10
7.19957e-10
6.11816e-10
5.1898e-10
4.39435e-10
3.71409e-10
3.13347e-10
2.63884e-10
2.21827e-10
1.86137e-10
1.55906e-10
1.30349e-10
1.08785e-10
9.06236e-11
7.5358e-11
6.25507e-11
5.18261e-11
4.28627e-11
3.53855e-11
2.91598e-11
2.3986e-11
1.96945e-11
1.61416e-11
1.32057e-11
1.07843e-11
8.79092e-12
7.15305e-12
5.80981e-12
4.71028e-12
3.81194e-12
3.07934e-12
2.48304e-12
1.99859e-12
1.60575e-12
1.28779e-12
1.03092e-12
8.23795e-13
6.57093e-13
5.23176e-13
4.15798e-13
3.2986e-13
2.61211e-13
2.06474e-13
1.62912e-13
1.28308e-13
1.00871e-13
7.91581e-14
6.20063e-14
4.84829e-14
3.78404e-14
2.94805e-14
2.29259e-14
1.77964e-14
1.37895e-14
1.06655e-14
8.23425e-15
6.34571e-15
4.88145e-15
3.74826e-15
2.87292e-15
2.19801e-15
1.67861e-15
1.27962e-15
9.73699e-16
7.39573e-16
5.60724e-16
4.24356e-16
3.2057e-16
2.41729e-16
1.81947e-16
1.36702e-16
1.02522e-16
7.67483e-17
5.735e-17
4.2777e-17
3.18493e-17
2.36701e-17
1.75595e-17
1.30028e-17
9.61107e-18
7.09118e-18
5.22248e-18
3.83926e-18
2.81727e-18
2.06357e-18
1.50877e-18
1.10112e-18
8.02153e-19
5.83289e-19
4.23361e-19
3.06709e-19
2.21772e-19
1.60031e-19
1.15219e-19
8.2731e-20
5.91881e-20
4.2111e-20
2.96777e-20
2.05426e-20
1.37013e-20
8.38738e-21
3.99235e-21
0
0
6.0771e-09
1.23085e-08
1.87336e-08
2.53928e-08
3.23278e-08
3.95813e-08
4.7197e-08
5.52195e-08
6.36936e-08
7.26651e-08
8.21795e-08
9.22826e-08
1.03019e-07
1.14435e-07
1.26572e-07
1.39474e-07
1.53181e-07
1.6773e-07
1.83158e-07
1.99497e-07
2.16775e-07
2.35019e-07
2.54249e-07
2.74479e-07
2.95721e-07
3.17979e-07
3.41251e-07
3.6553e-07
3.908e-07
4.17038e-07
4.44215e-07
4.72294e-07
5.01229e-07
5.30966e-07
5.61446e-07
5.92597e-07
6.24344e-07
6.56601e-07
6.89276e-07
7.2227e-07
7.55476e-07
7.88782e-07
8.22069e-07
8.55216e-07
8.88094e-07
9.20572e-07
9.52516e-07
9.83791e-07
1.01426e-06
1.04379e-06
1.07224e-06
1.09947e-06
1.12537e-06
1.1498e-06
1.17264e-06
1.19377e-06
1.2131e-06
1.23052e-06
1.24593e-06
1.25926e-06
1.27044e-06
1.27941e-06
1.28611e-06
1.29052e-06
1.29261e-06
1.29237e-06
1.2898e-06
1.28491e-06
1.27773e-06
1.2683e-06
1.25667e-06
1.2429e-06
1.22706e-06
1.20924e-06
1.18953e-06
1.16803e-06
1.14485e-06
1.12011e-06
1.09392e-06
1.06642e-06
1.03774e-06
1.008e-06
9.77354e-07
9.45929e-07
9.13862e-07
8.8129e-07
8.48346e-07
8.15161e-07
7.8186e-07
7.48568e-07
7.154e-07
6.82468e-07
6.49878e-07
6.17728e-07
5.86109e-07
5.55106e-07
5.24794e-07
4.95242e-07
4.66511e-07
4.38654e-07
4.11717e-07
3.85736e-07
3.60743e-07
3.36761e-07
3.13805e-07
2.91887e-07
2.7101e-07
2.51173e-07
2.32367e-07
2.14581e-07
1.97799e-07
1.82001e-07
1.67162e-07
1.53256e-07
1.40254e-07
1.28123e-07
1.16829e-07
1.0634e-07
9.66168e-08
8.76246e-08
7.93259e-08
7.16835e-08
6.46605e-08
5.82203e-08
5.23269e-08
4.69452e-08
4.20409e-08
3.75811e-08
3.35337e-08
2.98682e-08
2.65553e-08
2.35673e-08
2.08777e-08
1.84617e-08
1.62958e-08
1.4358e-08
1.26278e-08
1.10861e-08
9.71497e-09
8.49808e-09
7.42019e-09
6.46733e-09
5.62664e-09
4.8864e-09
4.23588e-09
3.66533e-09
3.1659e-09
2.72958e-09
2.34915e-09
2.01809e-09
1.73055e-09
1.4813e-09
1.26566e-09
1.07945e-09
9.18981e-10
7.80951e-10
6.62455e-10
5.60922e-10
4.74094e-10
3.99982e-10
3.36845e-10
2.83162e-10
2.37605e-10
1.99016e-10
1.66394e-10
1.38867e-10
1.15685e-10
9.61986e-11
7.98499e-11
6.61598e-11
5.47178e-11
4.51728e-11
3.72254e-11
3.06208e-11
2.51424e-11
2.06068e-11
1.68589e-11
1.37678e-11
1.1223e-11
9.1321e-12
7.41729e-12
6.01359e-12
4.86672e-12
3.93144e-12
3.17016e-12
2.55167e-12
2.05013e-12
1.64419e-12
1.31625e-12
1.05181e-12
8.38971e-13
6.67993e-13
5.30897e-13
4.21174e-13
3.33524e-13
2.63636e-13
2.08016e-13
1.63833e-13
1.28801e-13
1.01077e-13
7.91764e-14
6.19089e-14
4.83197e-14
3.7645e-14
2.92755e-14
2.27255e-14
1.7609e-14
1.36198e-14
1.05152e-14
8.10361e-15
6.23379e-15
4.78672e-15
3.6689e-15
2.80703e-15
2.14373e-15
1.63421e-15
1.24353e-15
9.4453e-16
7.16125e-16
5.41969e-16
4.09423e-16
3.08732e-16
2.32383e-16
1.74597e-16
1.30943e-16
9.80261e-17
7.32507e-17
5.46379e-17
4.06806e-17
3.02338e-17
2.2429e-17
1.66088e-17
1.22766e-17
9.05799e-18
6.67107e-18
4.90422e-18
3.59879e-18
2.63605e-18
1.92736e-18
1.40663e-18
1.02472e-18
7.45142e-19
5.40843e-19
3.91825e-19
2.8332e-19
2.04447e-19
1.47199e-19
1.05695e-19
7.56183e-20
5.38014e-20
3.79168e-20
2.62459e-20
1.75054e-20
1.07162e-20
5.10087e-21
0
0
7.66959e-09
1.5534e-08
2.36427e-08
3.20469e-08
4.07991e-08
4.99533e-08
5.95647e-08
6.96892e-08
8.03839e-08
9.1706e-08
1.03713e-07
1.16464e-07
1.30014e-07
1.4442e-07
1.59737e-07
1.76019e-07
1.93317e-07
2.11678e-07
2.31147e-07
2.51767e-07
2.73572e-07
2.96595e-07
3.20862e-07
3.46392e-07
3.73198e-07
4.01287e-07
4.30656e-07
4.61294e-07
4.93182e-07
5.26294e-07
5.6059e-07
5.96023e-07
6.32537e-07
6.70064e-07
7.08526e-07
7.47837e-07
7.87899e-07
8.28605e-07
8.69838e-07
9.11474e-07
9.53377e-07
9.95406e-07
1.03741e-06
1.07924e-06
1.12073e-06
1.16171e-06
1.20202e-06
1.24149e-06
1.27994e-06
1.3172e-06
1.3531e-06
1.38747e-06
1.42015e-06
1.45098e-06
1.4798e-06
1.50647e-06
1.53086e-06
1.55284e-06
1.57229e-06
1.58911e-06
1.60322e-06
1.61454e-06
1.623e-06
1.62856e-06
1.6312e-06
1.6309e-06
1.62765e-06
1.62148e-06
1.61242e-06
1.60052e-06
1.58585e-06
1.56847e-06
1.54849e-06
1.526e-06
1.50113e-06
1.474e-06
1.44475e-06
1.41352e-06
1.38048e-06
1.34578e-06
1.30958e-06
1.27206e-06
1.23339e-06
1.19373e-06
1.15326e-06
1.11216e-06
1.07059e-06
1.02871e-06
9.86691e-07
9.44678e-07
9.02823e-07
8.61266e-07
8.2014e-07
7.79568e-07
7.39668e-07
7.00543e-07
6.62291e-07
6.24998e-07
5.88741e-07
5.53587e-07
5.19593e-07
4.86807e-07
4.55266e-07
4.25001e-07
3.96033e-07
3.68373e-07
3.42026e-07
3.16991e-07
2.93258e-07
2.70813e-07
2.49634e-07
2.29697e-07
2.1097e-07
1.93421e-07
1.77011e-07
1.61701e-07
1.47449e-07
1.3421e-07
1.2194e-07
1.10591e-07
1.00118e-07
9.04729e-08
8.16094e-08
7.34814e-08
6.60435e-08
5.92514e-08
5.30618e-08
4.7433e-08
4.23248e-08
3.76986e-08
3.35174e-08
2.97461e-08
2.63515e-08
2.33022e-08
2.05685e-08
1.81227e-08
1.5939e-08
1.3993e-08
1.22625e-08
1.07266e-08
9.36607e-09
8.16337e-09
7.10226e-09
6.16792e-09
5.34683e-09
4.62667e-09
3.99628e-09
3.44554e-09
2.96534e-09
2.54745e-09
2.1845e-09
1.86988e-09
1.59768e-09
1.36264e-09
1.16008e-09
9.85844e-10
8.36264e-10
7.08098e-10
5.98491e-10
5.04937e-10
4.25237e-10
3.57469e-10
2.99959e-10
2.51246e-10
2.10063e-10
1.75314e-10
1.46048e-10
1.21448e-10
1.00809e-10
8.35265e-11
6.90815e-11
5.70314e-11
4.6998e-11
3.86598e-11
3.17435e-11
2.60173e-11
2.12856e-11
1.73829e-11
1.41701e-11
1.15302e-11
9.36516e-12
7.5929e-12
6.14488e-12
4.96402e-12
4.00283e-12
3.22192e-12
2.58867e-12
2.07611e-12
1.66203e-12
1.32813e-12
1.05939e-12
8.43501e-13
6.70391e-13
5.31844e-13
4.21166e-13
3.32917e-13
2.62683e-13
2.06891e-13
1.62654e-13
1.27644e-13
9.99881e-14
7.81827e-14
6.10219e-14
4.75416e-14
3.69721e-14
2.87004e-14
2.2239e-14
1.7201e-14
1.32803e-14
1.02346e-14
7.87319e-15
6.04563e-15
4.63388e-15
3.54536e-15
2.70763e-15
2.0641e-15
1.57066e-15
1.19302e-15
9.04538e-16
6.84569e-16
5.17154e-16
3.89973e-16
2.93536e-16
2.20547e-16
1.65406e-16
1.23827e-16
9.25317e-17
6.90204e-17
5.13898e-17
3.81933e-17
2.83341e-17
2.09819e-17
1.55092e-17
1.14432e-17
8.42786e-18
6.1958e-18
4.54663e-18
3.33037e-18
2.43504e-18
1.77717e-18
1.29468e-18
9.41456e-19
6.83342e-19
4.95068e-19
3.57978e-19
2.58325e-19
1.85993e-19
1.33552e-19
9.55494e-20
6.7983e-20
4.7912e-20
3.31649e-20
2.21204e-20
1.35414e-20
6.4457e-21
0
0
9.60723e-09
1.94585e-08
2.96157e-08
4.01431e-08
5.11064e-08
6.25733e-08
7.46127e-08
8.72949e-08
1.00691e-07
1.14874e-07
1.29914e-07
1.45885e-07
1.62858e-07
1.80903e-07
2.00089e-07
2.20484e-07
2.4215e-07
2.65149e-07
2.89536e-07
3.15363e-07
3.42675e-07
3.71513e-07
4.01908e-07
4.33886e-07
4.67462e-07
5.02644e-07
5.39429e-07
5.77805e-07
6.17746e-07
6.59219e-07
7.02175e-07
7.46557e-07
7.92291e-07
8.39294e-07
8.87469e-07
9.36706e-07
9.86884e-07
1.03787e-06
1.08951e-06
1.14166e-06
1.19415e-06
1.24679e-06
1.2994e-06
1.35179e-06
1.40375e-06
1.45509e-06
1.50558e-06
1.55501e-06
1.60317e-06
1.64983e-06
1.6948e-06
1.73785e-06
1.77878e-06
1.81739e-06
1.85349e-06
1.8869e-06
1.91744e-06
1.94497e-06
1.96933e-06
1.9904e-06
2.00807e-06
2.02225e-06
2.03285e-06
2.03982e-06
2.04312e-06
2.04274e-06
2.03868e-06
2.03095e-06
2.01961e-06
2.0047e-06
1.98632e-06
1.96456e-06
1.93953e-06
1.91137e-06
1.88022e-06
1.84624e-06
1.8096e-06
1.7705e-06
1.72911e-06
1.68565e-06
1.64031e-06
1.59332e-06
1.54488e-06
1.49521e-06
1.44453e-06
1.39305e-06
1.34098e-06
1.28853e-06
1.2359e-06
1.18327e-06
1.13085e-06
1.0788e-06
1.02729e-06
9.76473e-07
9.26496e-07
8.77492e-07
8.2958e-07
7.8287e-07
7.37457e-07
6.93425e-07
6.50846e-07
6.09779e-07
5.70273e-07
5.32365e-07
4.9608e-07
4.61434e-07
4.28433e-07
3.97075e-07
3.67348e-07
3.39233e-07
3.12705e-07
2.87731e-07
2.64274e-07
2.42292e-07
2.21737e-07
2.02559e-07
1.84707e-07
1.68124e-07
1.52753e-07
1.38538e-07
1.25418e-07
1.13336e-07
1.02233e-07
9.20518e-08
8.27346e-08
7.42262e-08
6.64727e-08
5.94216e-08
5.30226e-08
4.72273e-08
4.19894e-08
3.72651e-08
3.30127e-08
2.91927e-08
2.57681e-08
2.27042e-08
1.99685e-08
1.75307e-08
1.53627e-08
1.34386e-08
1.17342e-08
1.02275e-08
8.89811e-09
7.72757e-09
6.69889e-09
5.79666e-09
5.00689e-09
4.31691e-09
3.71529e-09
3.19174e-09
2.73701e-09
2.34283e-09
2.0018e-09
1.70732e-09
1.45353e-09
1.23523e-09
1.04782e-09
8.87237e-10
7.49907e-10
6.32688e-10
5.32827e-10
4.47918e-10
3.75858e-10
3.14822e-10
2.63221e-10
2.1968e-10
1.83009e-10
1.52185e-10
1.26324e-10
1.04667e-10
8.65671e-11
7.14675e-11
5.8895e-11
4.84465e-11
3.97796e-11
3.26041e-11
2.66747e-11
2.17841e-11
1.7758e-11
1.44498e-11
1.17367e-11
9.51571e-12
7.70108e-12
6.22122e-12
5.01664e-12
4.03799e-12
3.24437e-12
2.60201e-12
2.08306e-12
1.66459e-12
1.32779e-12
1.05721e-12
8.4025e-13
6.66605e-13
5.27889e-13
4.17282e-13
3.29253e-13
2.59325e-13
2.03878e-13
1.59997e-13
1.25333e-13
9.80012e-14
7.64911e-14
5.95942e-14
4.63457e-14
3.59773e-14
2.78779e-14
2.15628e-14
1.6648e-14
1.28302e-14
9.86996e-15
7.57898e-15
5.80924e-15
4.44468e-15
3.39448e-15
2.58773e-15
1.96915e-15
1.49572e-15
1.13405e-15
8.58278e-16
6.4839e-16
4.88941e-16
3.68035e-16
2.76524e-16
2.07391e-16
1.5526e-16
1.16022e-16
8.6543e-17
6.44372e-17
4.78909e-17
3.55288e-17
2.631e-17
1.94479e-17
1.43495e-17
1.05684e-17
7.76957e-18
5.70158e-18
4.17642e-18
3.05368e-18
2.22871e-18
1.62364e-18
1.18069e-18
8.56996e-19
6.20885e-19
4.48962e-19
3.23985e-19
2.33271e-19
1.67503e-19
1.19841e-19
8.52674e-20
6.00942e-20
4.15979e-20
2.77453e-20
1.6985e-20
8.08487e-21
0
0
1.19706e-08
2.42453e-08
3.69013e-08
5.00184e-08
6.36786e-08
7.79662e-08
9.29672e-08
1.08769e-07
1.25461e-07
1.43131e-07
1.61871e-07
1.81771e-07
2.02918e-07
2.25402e-07
2.49307e-07
2.74717e-07
3.01712e-07
3.30367e-07
3.60751e-07
3.9293e-07
4.26959e-07
4.62888e-07
5.00758e-07
5.406e-07
5.82433e-07
6.26266e-07
6.72096e-07
7.19908e-07
7.69671e-07
8.21341e-07
8.7486e-07
9.30154e-07
9.87133e-07
1.04569e-06
1.10571e-06
1.16706e-06
1.22957e-06
1.29309e-06
1.35743e-06
1.4224e-06
1.48779e-06
1.55338e-06
1.61892e-06
1.68419e-06
1.74893e-06
1.81289e-06
1.87579e-06
1.93737e-06
1.99737e-06
2.05551e-06
2.11153e-06
2.16517e-06
2.21616e-06
2.26426e-06
2.30924e-06
2.35086e-06
2.38891e-06
2.42321e-06
2.45356e-06
2.47982e-06
2.50183e-06
2.51949e-06
2.5327e-06
2.54139e-06
2.5455e-06
2.54503e-06
2.53997e-06
2.53034e-06
2.51621e-06
2.49764e-06
2.47474e-06
2.44763e-06
2.41645e-06
2.38137e-06
2.34256e-06
2.30023e-06
2.25459e-06
2.20587e-06
2.15431e-06
2.10016e-06
2.04368e-06
1.98513e-06
1.92478e-06
1.8629e-06
1.79976e-06
1.73563e-06
1.67076e-06
1.60541e-06
1.53984e-06
1.47428e-06
1.40896e-06
1.34412e-06
1.27994e-06
1.21663e-06
1.15436e-06
1.09331e-06
1.03362e-06
9.75422e-07
9.18842e-07
8.63983e-07
8.10934e-07
7.59769e-07
7.10548e-07
6.63317e-07
6.18108e-07
5.74942e-07
5.33825e-07
4.94755e-07
4.57717e-07
4.22687e-07
3.89635e-07
3.58519e-07
3.29292e-07
3.01903e-07
2.76292e-07
2.52397e-07
2.30153e-07
2.09491e-07
1.90339e-07
1.72627e-07
1.5628e-07
1.41226e-07
1.27391e-07
1.14705e-07
1.03095e-07
9.24934e-08
8.28321e-08
7.40461e-08
6.60725e-08
5.88512e-08
5.23245e-08
4.64376e-08
4.11387e-08
3.63786e-08
3.21113e-08
2.82933e-08
2.48843e-08
2.18465e-08
1.9145e-08
1.67472e-08
1.46233e-08
1.27456e-08
1.10891e-08
9.63035e-09
8.34844e-09
7.22409e-09
6.23988e-09
5.38002e-09
4.63028e-09
3.97782e-09
3.41112e-09
2.91988e-09
2.49487e-09
2.12787e-09
1.81158e-09
1.53952e-09
1.30595e-09
1.10582e-09
9.3466e-10
7.88569e-10
6.6411e-10
5.58284e-10
4.68473e-10
3.924e-10