# vtk DataFile Version 3.0
2D field
ASCII
DATASET STRUCTURED_POINTS
DIMENSIONS 129 129 1
ORIGIN 0 0 0
SPACING 0.0078125 0.0078125 1
POINT_DATA 16641
SCALARS temperature double 1
LOOKUP_TABLE default
0
0
0
0
0
0
0
0
0
0
0
0
0
0
0
0
0
0
0
0
0
0
0
0
0
0
0
0
0
0
0
0
0
0
0
0
0
0
0
0
0
0
0
0
0
0
0
0
0
0
0
0
0
0
0
0
0
0
0
0
0
0
0
0
0
0
0
0
0
0
0
0
0
0
0
0
0
0
0
0
0
0
0
0
0
0
0
0
0
0
0
0
0
0
0
0
0
0
0
0
0
0
0
0
0
0
0
0
0
0
0
0
0
0
0
0
0
0
0
0
0
0
0
0
0
0
0
0
0
0
0.000472112
0.000943855
0.00141496
0.00188514
0.00235411
0.00282161
0.00328735
0.00375106
0.00421245
0.00467125
0.0051272
0.00558001
0.00602941
0.00647515
0.00691694
0.00735454
0.00778767
0.00821608
0.00863951
0.00905771
0.00947043
0.00987742
0.0102784
0.0106733
0.0110616
0.0114433
0.0118181
0.0121857
0.012546
0.0128988
0.0132437
0.0135807
0.0139094
0.0142298
0.0145416
0.0148447
0.0151388
0.0154238
0.0156995
0.0159657
0.0162224
0.0164692
0.0167062
0.016933
0.0171497
0.0173561
0.017552
0.0177373
0.017912
0.0180759
0.0182289
0.0183709
0.0185019
0.0186217
0.0187303
0.0188277
0.0189137
0.0189884
0.0190516
0.0191033
0.0191436
0.0191723
0.0191895
0.0191945
0.0191926
0.0191742
0.0191445
0.0191034
0.0190507
0.0189867
0.0189111
0.0188243
0.0187261
0.0186166
0.0184959
0.0183641
0.0182213
0.0180675
0.0179028
0.0177274
0.0175413
0.0173447
0.0171376
0.0169202
0.0166926
0.016455
0.0162075
0.0159502
0.0156833
0.015407
0.0151215
0.0148268
0.0145233
0.0142109
0.0138901
0.0135609
0.0132235
0.0128782
0.0125252
0.0121646
0.0117967
0.0114217
0.0110399
0.0106514
0.0102565
0.00985553
0.0094486
0.00903601
0.008618
0.00819482
0.00776675
0.00733403
0.00689692
0.0064557
0.00601063
0.00556198
0.00511002
0.00465503
0.00419729
0.00373706
0.00327465
0.00281031
0.00234435
0.00187703
0.00140865
0.00093949
0.000469838
0
0
0.00094387
0.00188701
0.00282886
0.00376887
0.00470649
0.00564114
0.00657228
0.00749935
0.0084218
0.00933907
0.0102506
0.0111559
0.0120544
0.0129455
0.0138288
0.0147037
0.0155696
0.0164261
0.0172727
0.0181088
0.0189339
0.0197476
0.0205493
0.0213387
0.0221151
0.0228782
0.0236275
0.0243625
0.0250828
0.025788
0.0264777
0.0271514
0.0278087
0.0284492
0.0290726
0.0296785
0.0302665
0.0308363
0.0313875
0.0319198
0.0324328
0.0329263
0.0334
0.0338536
0.0342868
0.0346994
0.0350911
0.0354616
0.0358108
0.0361384
0.0364443
0.0367283
0.0369901
0.0372297
0.0374469
0.0376415
0.0378135
0.0379628
0.0380892
0.0381926
0.0382731
0.0383306
0.038365
0.038375
0.038371
0.0383343
0.038275
0.0381927
0.0380875
0.0379594
0.0378084
0.0376347
0.0374384
0.0372195
0.0369783
0.0367148
0.0364292
0.0361218
0.0357926
0.0354418
0.0350697
0.0346766
0.0342626
0.0338279
0.033373
0.0328979
0.032403
0.0318887
0.0313552
0.0308028
0.0302319
0.0296428
0.0290359
0.0284115
0.02777
0.0271118
0.0264374
0.025747
0.0250411
0.0243202
0.0235847
0.0228351
0.0220717
0.021295
0.0205056
0.0197038
0.0188903
0.0180654
0.0172297
0.0163836
0.0155278
0.0146627
0.0137888
0.0129067
0.0120169
0.0111199
0.0102163
0.00930666
0.0083915
0.0074714
0.0065469
0.00561858
0.00468699
0.0037527
0.00281628
0.0018783
0.000939338
0
0
0.00141499
0.00282888
0.00424085
0.00565006
0.00705568
0.00845686
0.00985277
0.0112426
0.0126255
0.0140006
0.0153671
0.0167243
0.0180712
0.0194072
0.0207313
0.0220429
0.0233411
0.0246251
0.0258942
0.0271476
0.0283846
0.0296044
0.0308064
0.0319897
0.0331537
0.0342977
0.035421
0.0365229
0.0376028
0.0386599
0.0396938
0.0407038
0.0416892
0.0426494
0.043584
0.0444923
0.0453738
0.046228
0.0470543
0.0478523
0.0486214
0.0493613
0.0500714
0.0507514
0.0514009
0.0520194
0.0526065
0.053162
0.0536855
0.0541767
0.0546353
0.055061
0.0554535
0.0558127
0.0561383
0.0564301
0.0566879
0.0569116
0.0571011
0.0572562
0.0573769
0.0574631
0.0575146
0.0575297
0.0575236
0.0574685
0.0573797
0.0572563
0.0570986
0.0569065
0.0566802
0.0564198
0.0561255
0.0557974
0.0554358
0.0550408
0.0546127
0.0541517
0.0536582
0.0531324
0.0525746
0.0519852
0.0513645
0.0507129
0.0500308
0.0493187
0.0485768
0.0478057
0.0470059
0.0461778
0.0453219
0.0444388
0.0435289
0.0425929
0.0416312
0.0406445
0.0396334
0.0385984
0.0375403
0.0364596
0.0353569
0.034233
0.0330886
0.0319243
0.0307408
0.0295389
0.0283193
0.0270826
0.0258298
0.0245615
0.0232784
0.0219815
0.0206714
0.019349
0.018015
0.0166703
0.0153157
0.013952
0.0125801
0.0112007
0.00981477
0.00842307
0.00702649
0.00562585
0.00422202
0.00281586
0.00140821
0
0
0.00188518
0.00376891
0.00565008
0.00752758
0.00940029
0.0112671
0.0131269
0.0149785
0.0168209
0.018653
0.0204737
0.0222818
0.0240764
0.0258562
0.0276204
0.0293678
0.0310974
0.0328081
0.0344989
0.0361689
0.0378169
0.0394421
0.0410435
0.04262
0.0441708
0.0456949
0.0471915
0.0486596
0.0500983
0.0515068
0.0528842
0.0542298
0.0555426
0.056822
0.0580672
0.0592773
0.0604517
0.0615897
0.0626906
0.0637538
0.0647785
0.0657642
0.0667104
0.0676163
0.0684816
0.0693056
0.0700879
0.070828
0.0715254
0.0721798
0.0727908
0.0733579
0.0738809
0.0743595
0.0747932
0.075182
0.0755255
0.0758236
0.0760761
0.0762827
0.0764435
0.0765583
0.076627
0.0766472
0.0766388
0.0765655
0.0764471
0.0762828
0.0760727
0.0758168
0.0755153
0.0751684
0.0747762
0.0743391
0.0738573
0.0733311
0.0727607
0.0721465
0.071489
0.0707885
0.0700453
0.0692601
0.0684331
0.0675651
0.0666563
0.0657075
0.0647191
0.0636918
0.0626262
0.0615229
0.0603826
0.059206
0.0579938
0.0567467
0.0554655
0.0541509
0.0528038
0.0514249
0.0500151
0.0485752
0.0471062
0.0456088
0.0440841
0.0425329
0.0409561
0.0393548
0.0377299
0.0360823
0.0344131
0.0327233
0.031014
0.029286
0.0275406
0.0257787
0.0240015
0.02221
0.0204052
0.0185884
0.0167605
0.0149228
0.0130763
0.0112221
0.00936144
0.00749537
0.00562504
0.0037516
0.00187618
0
0
0.00235418
0.00470654
0.00705572
0.00940031
0.0117389
0.0140701
0.0163926
0.0187049
0.0210057
0.0232936
0.0255672
0.0278252
0.0300662
0.0322889
0.0344919
0.036674
0.0388339
0.0409702
0.0430817
0.0451671
0.0472252
0.0492547
0.0512544
0.0532232
0.0551598
0.0570631
0.058932
0.0607653
0.062562
0.0643209
0.066041
0.0677213
0.0693608
0.0709585
0.0725134
0.0740246
0.0754912
0.0769123
0.0782871
0.0796147
0.0808944
0.0821254
0.0833069
0.0844383
0.0855188
0.0865478
0.0875247
0.0884489
0.0893199
0.0901371
0.0909
0.0916083
0.0922614
0.092859
0.0934007
0.0938862
0.0943151
0.0946874
0.0950026
0.0952607
0.0954615
0.0956049
0.0956907
0.0957159
0.0957052
0.0956138
0.0954659
0.0952608
0.0949984
0.0946789
0.0943024
0.0938691
0.0933795
0.0928336
0.0922319
0.0915747
0.0908625
0.0900955
0.0892744
0.0883996
0.0874716
0.086491
0.0854583
0.0843742
0.0832394
0.0820545
0.0808203
0.0795374
0.0782067
0.0768289
0.0754049
0.0739356
0.0724218
0.0708644
0.0692645
0.0676228
0.0659406
0.0642186
0.0624581
0.06066
0.0588255
0.0569557
0.0550516
0.0531144
0.0511454
0.0491457
0.0471165
0.0450591
0.0429746
0.0408644
0.0387298
0.036572
0.0343923
0.0321921
0.0299727
0.0277355
0.0254818
0.0232129
0.0209303
0.0186354
0.0163295
0.014014
0.0116904
0.00936013
0.00702449
0.00468495
0.00234295
0
0
0.00282169
0.00564122
0.00845692
0.0112671
0.0140702
0.0168644
0.019648
0.0224196
0.0251773
0.0279195
0.0306446
0.033351
0.0360371
0.0387012
0.0413418
0.0439573
0.046546
0.0491066
0.0516374
0.054137
0.0566038
0.0590363
0.0614332
0.063793
0.0661142
0.0683955
0.0706355
0.0728329
0.0749864
0.0770946
0.0791563
0.0811703
0.0831354
0.0850504
0.0869141
0.0887254
0.0904833
0.0921866
0.0938344
0.0954257
0.0969596
0.098435
0.0998511
0.101207
0.102502
0.103736
0.104907
0.106014
0.107058
0.108038
0.108952
0.109801
0.110584
0.1113
0.111949
0.112531
0.113046
0.113492
0.11387
0.114179
0.11442
0.114591
0.114694
0.114725
0.114712
0.114602
0.114425
0.114179
0.113864
0.113481
0.11303
0.112511
0.111924
0.11127
0.110549
0.109761
0.108907
0.107988
0.107004
0.105955
0.104843
0.103668
0.10243
0.10113
0.0997703
0.0983501
0.0968707
0.095333
0.093738
0.0920867
0.0903799
0.0886188
0.0868043
0.0849377
0.08302
0.0810523
0.079036
0.0769721
0.0748619
0.0727068
0.0705079
0.0682667
0.0659845
0.0636627
0.0613026
0.0589058
0.0564736
0.0540076
0.0515092
0.0489799
0.0464213
0.043835
0.0412225
0.0385853
0.0359252
0.0332436
0.0305423
0.0278229
0.025087
0.0223363
0.0195725
0.0167972
0.0140121
0.011219
0.00841953
0.00561537
0.00280826
0
0
0.00328745
0.00657237
0.00985285
0.0131269
0.0163926
0.0196481
0.0228912
0.0261202
0.0293332
0.032528
0.035703
0.0388561
0.0419856
0.0450894
0.0481659
0.0512131
0.0542292
0.0572124
0.060161
0.0630731
0.0659471
0.0687812
0.0715738
0.074323
0.0770274
0.0796853
0.0822951
0.0848552
0.0873641
0.0898203
0.0922224
0.0945688
0.0968583
0.0990893
0.101261
0.103371
0.105419
0.107404
0.109323
0.111177
0.112964
0.114683
0.116333
0.117913
0.119422
0.120859
0.122223
0.123514
0.12473
0.125871
0.126937
0.127926
0.128838
0.129672
0.130429
0.131107
0.131706
0.132225
0.132666
0.133026
0.133306
0.133507
0.133626
0.133662
0.133647
0.133519
0.133313
0.133026
0.13266
0.132213
0.131688
0.131083
0.130399
0.129637
0.128796
0.127879
0.126884
0.125813
0.124667
0.123445
0.122149
0.12078
0.119338
0.117824
0.116239
0.114584
0.112861
0.111069
0.109211
0.107287
0.105299
0.103247
0.101133
0.0989581
0.0967238
0.0944314
0.0920822
0.0896776
0.0872191
0.0847082
0.0821464
0.0795353
0.0768764
0.0741713
0.0714217
0.0686292
0.0657955
0.0629224
0.0600116
0.0570649
0.054084
0.0510707
0.0480269
0.0449545
0.0418552
0.038731
0.0355838
0.0324155
0.029228
0.0260233
0.0228032
0.0195699
0.0163251
0.0130709
0.00980933
0.0065423
0.00327182
0
0
0.00375117
0.00749946
0.0112427
0.0149786
0.018705
0.0224196
0.0261203
0.0298048
0.0334709
0.0371164
0.0407393
0.0443372
0.0479081
0.0514498
0.0549602
0.0584372
0.0618788
0.0652828
0.0686473
0.0719703
0.0752497
0.0784835
0.08167
0.0848071
0.0878929
0.0909257
0.0939036
0.0968249
0.0996877
0.10249
0.105231
0.107909
0.110521
0.113067
0.115545
0.117953
0.120289
0.122554
0.124745
0.12686
0.128899
0.130861
0.132743
0.134546
0.136268
0.137907
0.139464
0.140937
0.142324
0.143627
0.144842
0.145971
0.147012
0.147964
0.148827
0.149601
0.150284
0.150877
0.15138
0.151791
0.152111
0.152339
0.152476
0.152516
0.152499
0.152353
0.152118
0.151791
0.151373
0.150864
0.150264
0.149573
0.148793
0.147923
0.146965
0.145917
0.144783
0.14356
0.142252
0.140858
0.139379
0.137817
0.136171
0.134444
0.132636
0.130748
0.128781
0.126737
0.124616
0.122421
0.120152
0.117811
0.115399
0.112917
0.110368
0.107752
0.105071
0.102328
0.0995224
0.0966573
0.0937341
0.0907546
0.0877206
0.084634
0.0814965
0.0783101
0.0750767
0.0717984
0.0684769
0.0651145
0.0617131
0.0582748
0.0548017
0.0512958
0.0477594
0.0441945
0.0406034
0.0369881
0.033351
0.0296942
0.0260199
0.0223304
0.018628
0.0149147
0.0111931
0.00746518
0.00373335
0
0
0.00421258
0.00842192
0.0126256
0.016821
0.0210058
0.0251773
0.0293332
0.0334709
0.037588
0.0416819
0.0457504
0.0497909
0.053801
0.0577784
0.0617206
0.0656253
0.0694902
0.073313
0.0770913
0.080823
0.0845058
0.0881375
0.0917159
0.0952388
0.0987043
0.10211
0.105454
0.108735
0.11195
0.115097
0.118175
0.121182
0.124116
0.126975
0.129757
0.132461
0.135086
0.137629
0.140089
0.142465
0.144755
0.146957
0.149071
0.151096
0.153029
0.154871
0.156619
0.158273
0.159831
0.161294
0.162659
0.163926
0.165095
0.166164
0.167134
0.168002
0.16877
0.169436
0.17
0.170462
0.170821
0.171078
0.171232
0.171277
0.171257
0.171093
0.170829
0.170462
0.169993
0.169421
0.168747
0.167972
0.167096
0.166119
0.165042
0.163866
0.162592
0.161219
0.15975
0.158185
0.156524
0.154769
0.152921
0.150982
0.148951
0.146831
0.144622
0.142326
0.139945
0.13748
0.134932
0.132302
0.129594
0.126807
0.123944
0.121006
0.117996
0.114915
0.111764
0.108547
0.105264
0.101918
0.0985109
0.0950445
0.0915211
0.0879428
0.0843117
0.08063
0.0769001
0.0731241
0.0693043
0.065443
0.0615427
0.0576056
0.0536341
0.0496308
0.0455979
0.0415379
0.0374534
0.0333468
0.0292206
0.0250772
0.0209193
0.0167494
0.0125699
0.00838346
0.00419259
0
0
0.0046714
0.00933921
0.0140007
0.0186531
0.0232937
0.0279196
0.0325281
0.0371165
0.041682
0.0462219
0.0507334
0.055214
0.0596609
0.0640715
0.0684431
0.0727731
0.077059
0.0812981
0.085488
0.0896261
0.09371
0.0977373
0.101705
0.105612
0.109455
0.113232
0.11694
0.120578
0.124143
0.127634
0.131047
0.134381
0.137634
0.140805
0.14389
0.146889
0.149799
0.152619
0.155347
0.157982
0.160521
0.162964
0.165308
0.167553
0.169697
0.171739
0.173678
0.175512
0.17724
0.178862
0.180375
0.181781
0.183077
0.184263
0.185338
0.186301
0.187152
0.187891
0.188516
0.189029
0.189427
0.189712
0.189882
0.189932
0.18991
0.189729
0.189435
0.189029
0.188508
0.187874
0.187127
0.186267
0.185295
0.184212
0.183018
0.181714
0.180301
0.178779
0.17715
0.175414
0.173572
0.171627
0.169577
0.167426
0.165174
0.162823
0.160374
0.157828
0.155188
0.152454
0.149628
0.146713
0.143709
0.140618
0.137444
0.134186
0.130848
0.127431
0.123938
0.12037
0.116729
0.113019
0.109241
0.105397
0.10149
0.0975214
0.0934949
0.0894122
0.085276
0.0810887
0.0768528
0.072571
0.0682459
0.06388
0.059476
0.0550365
0.0505644
0.0460623
0.0415329
0.0369789
0.0324033
0.0278087
0.0231979
0.0185737
0.013939
0.0092966
0.00464925
0
0
0.00512736
0.0102508
0.0153673
0.0204738
0.0255673
0.0306447
0.0357031
0.0407393
0.0457504
0.0507335
0.0556854
0.0606033
0.0654843
0.0703254
0.0751237
0.0798763
0.0845805
0.0892335
0.0938323
0.0983744
0.102857
0.107277
0.111633
0.115921
0.120139
0.124284
0.128355
0.132348
0.136261
0.140092
0.143838
0.147498
0.151069
0.154548
0.157935
0.161227
0.164421
0.167516
0.17051
0.173402
0.176189
0.17887
0.181444
0.183908
0.186261
0.188502
0.19063
0.192643
0.19454
0.19632
0.197982
0.199524
0.200947
0.202248
0.203428
0.204485
0.20542
0.206231
0.206917
0.207479
0.207917
0.208229
0.208416
0.208471
0.208447
0.208248
0.207926
0.207479
0.206908
0.206212
0.205392
0.204448
0.203382
0.202193
0.200883
0.199451
0.1979
0.19623
0.194441
0.192536
0.190515
0.188379
0.18613
0.183769
0.181297
0.178716
0.176028
0.173234
0.170335
0.167335
0.164233
0.161033
0.157736
0.154344
0.150859
0.147284
0.14362
0.139869
0.136035
0.132119
0.128123
0.124051
0.119903
0.115684
0.111396
0.10704
0.102621
0.0981396
0.0935997
0.0890037
0.0843544
0.0796546
0.0749073
0.0701152
0.0652813
0.0604086
0.0554999
0.0505584
0.0455869
0.0405884
0.0355662
0.0305231
0.0254622
0.0203867
0.0152996
0.010204
0.00510306
0
0
0.00558018
0.0111561
0.0167244
0.022282
0.0278253
0.0333511
0.0388562
0.0443372
0.0497909
0.0552141
0.0606033
0.0659556
0.0712676
0.0765363
0.0817583
0.0869308
0.0920504
0.0971143
0.102119
0.107062
0.111941
0.116752
0.121492
0.126158
0.130749
0.135261
0.139691
0.144036
0.148295
0.152464
0.156542
0.160524
0.164411
0.168198
0.171883
0.175466
0.178942
0.182311
0.185569
0.188716
0.19175
0.194668
0.197468
0.20015
0.202711
0.20515
0.207466
0.209657
0.211721
0.213658
0.215467
0.217146
0.218694
0.22011
0.221394
0.222545
0.223562
0.224444
0.225192
0.225803
0.226279
0.226619
0.226823
0.226883
0.226856
0.22664
0.226289
0.225803
0.225181
0.224424
0.223532
0.222505
0.221344
0.22005
0.218624
0.217066
0.215378
0.21356
0.211614
0.20954
0.20734
0.205016
0.202568
0.199998
0.197309
0.1945
0.191574
0.188533
0.185379
0.182113
0.178738
0.175255
0.171667
0.167975
0.164183
0.160292
0.156304
0.152222
0.148049
0.143787
0.139439
0.135006
0.130493
0.125901
0.121234
0.116494
0.111684
0.106807
0.101866
0.0968643
0.0918044
0.0866895
0.0815229
0.0763076
0.0710469
0.0657438
0.0604016
0.0550236
0.049613
0.0441731
0.0387073
0.0332188
0.027711
0.0221872
0.0166509
0.0111052
0.00555376
0
0
0.00602961
0.0120546
0.0180714
0.0240765
0.0300663
0.0360372
0.0419857
0.0479081
0.0538011
0.059661
0.0654843
0.0712677
0.0770075
0.0827005
0.0883431
0.0939322
0.0994642
0.104936
0.110344
0.115685
0.120957
0.126155
0.131277
0.136319
0.14128
0.146154
0.150941
0.155637
0.160239
0.164744
0.169149
0.173453
0.177652
0.181744
0.185727
0.189598
0.193354
0.196994
0.200515
0.203916
0.207193
0.210346
0.213372
0.21627
0.219038
0.221673
0.224175
0.226543
0.228773
0.230866
0.232821
0.234635
0.236307
0.237838
0.239225
0.240469
0.241568
0.242521
0.243329
0.24399
0.244504
0.244871
0.245091
0.245156
0.245127
0.244893
0.244515
0.243989
0.243317
0.242499
0.241535
0.240425
0.239171
0.237773
0.236232
0.234549
0.232725
0.23076
0.228657
0.226416
0.22404
0.221528
0.218883
0.216106
0.2132
0.210165
0.207004
0.203718
0.20031
0.196781
0.193134
0.18937
0.185493
0.181504
0.177406
0.173201
0.168893
0.164482
0.159973
0.155368
0.150669
0.14588
0.141003
0.136041
0.130998
0.125876
0.120679
0.115409
0.110071
0.104666
0.0991984
0.0936716
0.0880889
0.0824535
0.076769
0.0710388
0.0652664
0.0594552
0.0536089
0.0477309
0.0418248
0.0358943
0.0299429
0.0239742
0.017992
0.0119997
0.00600107
0
0
0.00647535
0.0129457
0.0194074
0.0258564
0.032289
0.0387014
0.0450896
0.0514499
0.0577785
0.0640716
0.0703254
0.0765363
0.0827005
0.0888143
0.0948742
0.100876
0.106817
0.112694
0.118501
0.124238
0.129899
0.135481
0.140982
0.146397
0.151724
0.156959
0.1621
0.167143
0.172085
0.176923
0.181654
0.186276
0.190786
0.19518
0.199457
0.203614
0.207648
0.211557
0.215339
0.218991
0.222511
0.225897
0.229147
0.232259
0.235231
0.238061
0.240748
0.24329
0.245686
0.247934
0.250033
0.251981
0.253777
0.255421
0.256911
0.258246
0.259426
0.26045
0.261318
0.262027
0.26258
0.262974
0.26321
0.26328
0.263249
0.262998
0.262591
0.262027
0.261305
0.260427
0.259391
0.2582
0.256853
0.255351
0.253696
0.251889
0.249929
0.24782
0.245561
0.243155
0.240602
0.237905
0.235065
0.232083
0.228961
0.225702
0.222307
0.218778
0.215118
0.211328
0.207412
0.20337
0.199206
0.194922
0.190521
0.186006
0.181379
0.176642
0.1718
0.166854
0.161808
0.156665
0.151427
0.146099
0.140683
0.135182
0.129601
0.123941
0.118208
0.112404
0.106532
0.100597
0.0946012
0.0885492
0.0824445
0.0762907
0.0700915
0.0638507
0.0575721
0.0512596
0.0449169
0.0385479
0.0321566
0.0257466
0.0193221
0.0128868
0.00644473
0
0
0.00691717
0.013829
0.0207315
0.0276206
0.0344921
0.041342
0.048166
0.0549603
0.0617207
0.0684432
0.0751237
0.0817584
0.0883432
0.0948742
0.101347
0.107759
0.114106
0.120383
0.126587
0.132714
0.138762
0.144725
0.150601
0.156386
0.162076
0.167669
0.17316
0.178547
0.183826
0.188994
0.194049
0.198986
0.203803
0.208498
0.213067
0.217507
0.221816
0.225992
0.230032
0.233933
0.237693
0.24131
0.244781
0.248106
0.251281
0.254304
0.257175
0.25989
0.26245
0.264851
0.267093
0.269174
0.271093
0.272849
0.27444
0.275867
0.277127
0.278221
0.279147
0.279906
0.280496
0.280917
0.281169
0.281244
0.281211
0.280942
0.280508
0.279906
0.279135
0.278196
0.27709
0.275817
0.274378
0.272774
0.271006
0.269075
0.266982
0.264729
0.262316
0.259746
0.257019
0.254138
0.251103
0.247918
0.244584
0.241102
0.237475
0.233706
0.229796
0.225748
0.221563
0.217246
0.212798
0.208222
0.203521
0.198697
0.193754
0.188695
0.183522
0.178239
0.172848
0.167354
0.161759
0.156067
0.150282
0.144406
0.138444
0.132398
0.126273
0.120073
0.113801
0.10746
0.101056
0.0945911
0.0880698
0.0814961
0.0748739
0.0682073
0.0615004
0.0547571
0.0479817
0.0411781
0.0343507
0.0275034
0.0206405
0.0137661
0.00688447
0
0
0.00735478
0.0147039
0.0220431
0.029368
0.0366742
0.0439574
0.0512132
0.0584374
0.0656254
0.0727732
0.0798764
0.0869308
0.0939322
0.100876
0.107759
0.114577
0.121324
0.127999
0.134595
0.141111
0.147541
0.153881
0.160129
0.16628
0.17233
0.178276
0.184115
0.189843
0.195456
0.200951
0.206325
0.211575
0.216697
0.221688
0.226546
0.231268
0.23585
0.24029
0.244585
0.248733
0.252731
0.256576
0.260268
0.263802
0.267178
0.270393
0.273445
0.276332
0.279053
0.281607
0.28399
0.286203
0.288243
0.29011
0.291803
0.29332
0.29466
0.295823
0.296808
0.297614
0.298242
0.298689
0.298958
0.299037
0.299002
0.298716
0.298255
0.297614
0.296794
0.295796
0.29462
0.293266
0.291737
0.290031
0.288151
0.286098
0.283873
0.281477
0.278912
0.276179
0.273279
0.270216
0.26699
0.263603
0.260057
0.256355
0.252499
0.248491
0.244334
0.24003
0.235581
0.23099
0.226261
0.221395
0.216397
0.211268
0.206012
0.200633
0.195132
0.189515
0.183783
0.177942
0.171993
0.165941
0.159789
0.153542
0.147202
0.140774
0.134262
0.12767
0.121
0.114259
0.107449
0.100575
0.0936416
0.086652
0.0796109
0.0725225
0.0653913
0.0582214
0.0510173
0.0437833
0.0365239
0.0292434
0.0219463
0.014637
0.00732002
0
0
0.00778792
0.0155699
0.0233413
0.0310976
0.0388341
0.0465462
0.0542294
0.0618789
0.0694904
0.0770591
0.0845807
0.0920505
0.0994642
0.106817
0.114106
0.121324
0.12847
0.135537
0.142522
0.149421
0.15623
0.162944
0.169559
0.176073
0.182479
0.188776
0.194958
0.201023
0.206967
0.212786
0.218477
0.224035
0.229459
0.234745
0.239889
0.244888
0.24974
0.254441
0.258989
0.263381
0.267615
0.271687
0.275596
0.279339
0.282913
0.286317
0.289549
0.292607
0.295488
0.298192
0.300716
0.303059
0.305219
0.307196
0.308988
0.310594
0.312014
0.313245
0.314288
0.315142
0.315806
0.316281
0.316565
0.316648
0.316611
0.316309
0.31582
0.315142
0.314274
0.313217
0.311971
0.310538
0.308918
0.307112
0.305122
0.302948
0.300592
0.298054
0.295338
0.292444
0.289374
0.28613
0.282714
0.279127
0.275373
0.271453
0.26737
0.263126
0.258724
0.254166
0.249455
0.244594
0.239586
0.234434
0.229141
0.223711
0.218145
0.212449
0.206625
0.200676
0.194607
0.188421
0.182122
0.175714
0.1692
0.162585
0.155872
0.149065
0.142169
0.135189
0.128127
0.120988
0.113778
0.106499
0.0991566
0.0917554
0.0842996
0.0767937
0.0692425
0.0616503
0.0540219
0.0463619
0.038675
0.0309657
0.0232389
0.0154991
0.00775114
0
0
0.00821635
0.0164264
0.0246253
0.0328083
0.0409704
0.0491068
0.0572126
0.065283
0.0733131
0.0812983
0.0892336
0.0971144
0.104936
0.112694
0.120383
0.127999
0.135537
0.142993
0.150363
0.157641
0.164824
0.171908
0.178887
0.185759
0.192518
0.199161
0.205684
0.212082
0.218353
0.224492
0.230495
0.23636
0.242082
0.247658
0.253085
0.25836
0.263479
0.268439
0.273237
0.277871
0.282337
0.286633
0.290757
0.294706
0.298477
0.302068
0.305478
0.308704
0.311744
0.314596
0.317259
0.319731
0.32201
0.324096
0.325986
0.327681
0.329178
0.330477
0.331578
0.332479
0.33318
0.33368
0.333979
0.334068
0.334029
0.33371
0.333194
0.332478
0.331562
0.330447
0.329133
0.327621
0.325912
0.324007
0.321907
0.319614
0.317128
0.314451
0.311585
0.308532
0.305293
0.301871
0.298266
0.294483
0.290522
0.286387
0.282079
0.277601
0.272957
0.268148
0.263178
0.25805
0.252767
0.247331
0.241747
0.236017
0.230146
0.224136
0.217992
0.211716
0.205313
0.198787
0.192141
0.18538
0.178508
0.171529
0.164447
0.157266
0.149991
0.142626
0.135175
0.127644
0.120037
0.112358
0.104611
0.0968031
0.0889371
0.0810184
0.0730517
0.0650419
0.0569939
0.0489124
0.0408026
0.0326692
0.0245173
0.0163518
0.00817755
0
0
0.00863979
0.017273
0.0258945
0.0344992
0.0430819
0.0516377
0.0601612
0.0686475
0.0770915
0.0854882
0.0938325
0.102119
0.110344
0.118502
0.126587
0.134595
0.142522
0.150363
0.158112
0.165766
0.173319
0.180767
0.188107
0.195332
0.20244
0.209425
0.216284
0.223012
0.229606
0.236062
0.242375
0.248542
0.254559
0.260422
0.266129
0.271675
0.277058
0.282273
0.287319
0.292191
0.296888
0.301406
0.305742
0.309894
0.31386
0.317636
0.321222
0.324614
0.32781
0.330809
0.33361
0.336209
0.338606
0.340799
0.342787
0.344569
0.346143
0.34751
0.348667
0.349614
0.350351
0.350877
0.351192
0.351285
0.351244
0.350908
0.350366
0.349613
0.348651
0.347478
0.346096
0.344506
0.342709
0.340706
0.338498
0.336086
0.333472
0.330657
0.327644
0.324433
0.321027
0.317428
0.313638
0.30966
0.305495
0.301146
0.296617
0.291908
0.287025
0.281968
0.276742
0.27135
0.265794
0.260078
0.254206
0.248181
0.242007
0.235688
0.229226
0.222627
0.215895
0.209032
0.202044
0.194935
0.187708
0.180369
0.172922
0.165371
0.157721
0.149976
0.142142
0.134223
0.126223
0.118148
0.110003
0.101792
0.0935208
0.085194
0.0768167
0.0683941
0.0599312
0.0514333
0.0429055
0.034353
0.0257809
0.0171945
0.00859902
0
0
0.00905801
0.0181091
0.0271479
0.0361691
0.0451674
0.0541372
0.0630734
0.0719705
0.0808232
0.0896263
0.0983745
0.107063
0.115685
0.124238
0.132715
0.141111
0.149421
0.157641
0.165766
0.17379
0.181709
0.189518
0.197212
0.204788
0.212239
0.219563
0.226754
0.233808
0.240721
0.247489
0.254107
0.260573
0.266881
0.273028
0.279011
0.284826
0.290469
0.295937
0.301227
0.306335
0.311259
0.315996
0.320542
0.324895
0.329053
0.333012
0.336771
0.340327
0.343678
0.346823
0.349758
0.352484
0.354997
0.357296
0.35938
0.361248
0.362899
0.364331
0.365544
0.366538
0.36731
0.367862
0.368192
0.368289
0.368246
0.367895
0.367326
0.366537
0.365527
0.364298
0.36285
0.361183
0.359299
0.357198
0.354883
0.352355
0.349614
0.346663
0.343504
0.340138
0.336567
0.332794
0.328821
0.32465
0.320283
0.315724
0.310975
0.306039
0.300918
0.295617
0.290138
0.284485
0.27866
0.272668
0.266511
0.260195
0.253722
0.247097
0.240323
0.233404
0.226345
0.219151
0.211824
0.204371
0.196795
0.1891
0.181292
0.173376
0.165356
0.157236
0.149023
0.14072
0.132333
0.123868
0.115328
0.10672
0.0980479
0.0893179
0.0805351
0.0717048
0.0628323
0.0539231
0.0449824
0.0360159
0.0270289
0.0180268
0.00901527
0
0
0.00947074
0.0189342
0.0283849
0.0378172
0.0472255
0.056604
0.0659474
0.0752499
0.084506
0.0937102
0.102857
0.111941
0.120957
0.129899
0.138762
0.147541
0.15623
0.164824
0.173319
0.181709
0.189988
0.198153
0.206198
0.214119
0.22191
0.229567
0.237086
0.244461
0.251689
0.258766
0.265686
0.272446
0.279042
0.285469
0.291725
0.297804
0.303705
0.309422
0.314953
0.320294
0.325442
0.330395
0.335148
0.339699
0.344046
0.348186
0.352116
0.355835
0.359339
0.362626
0.365696
0.368545
0.371173
0.373577
0.375756
0.377709
0.379435
0.380933
0.382201
0.383239
0.384047
0.384624
0.384969
0.385071
0.385026
0.384658
0.384064
0.383239
0.382183
0.380898
0.379383
0.377641
0.375671
0.373475
0.371054
0.36841
0.365545
0.36246
0.359156
0.355637
0.351903
0.347958
0.343804
0.339443
0.334877
0.33011
0.325145
0.319984
0.31463
0.309088
0.303359
0.297448
0.291358
0.285092
0.278655
0.272051
0.265283
0.258356
0.251273
0.244039
0.236659
0.229137
0.221476
0.213683
0.205762
0.197717
0.189553
0.181276
0.17289
0.164401
0.155813
0.147132
0.138363
0.129512
0.120583
0.111582
0.102516
0.0933879
0.0842049
0.0749722
0.0656954
0.0563802
0.0470322
0.037657
0.0282605
0.0188483
0.00942607
0
0
0.00987775
0.0197479
0.0296048
0.0394424
0.049255
0.0590366
0.0687815
0.0784838
0.0881377
0.0977375
0.107277
0.116752
0.126155
0.135481
0.144725
0.153881
0.162944
0.171908
0.180768
0.189518
0.198153
0.206669
0.21506
0.223321
0.231447
0.239433
0.247275
0.254967
0.262506
0.269886
0.277104
0.284154
0.291034
0.297737
0.304262
0.310603
0.316757
0.32272
0.328488
0.334059
0.339428
0.344594
0.349551
0.354298
0.358832
0.36315
0.367249
0.371127
0.374781
0.37821
0.381412
0.384384
0.387124
0.389631
0.391904
0.393942
0.395742
0.397304
0.398626
0.399709
0.400552
0.401154
0.401514
0.40162
0.401573
0.401189
0.400569
0.399709
0.398608
0.397267
0.395688
0.39387
0.391815
0.389525
0.387001
0.384243
0.381255
0.378037
0.374591
0.370921
0.367027
0.362912
0.358579
0.354031
0.349269
0.344297
0.339118
0.333735
0.328152
0.322371
0.316396
0.310231
0.303879
0.297344
0.290631
0.283743
0.276684
0.269459
0.262072
0.254527
0.24683
0.238984
0.230995
0.222867
0.214605
0.206214
0.1977
0.189067
0.18032
0.171466
0.162509
0.153455
0.14431
0.135078
0.125765
0.116378
0.106921
0.0974013
0.0878237
0.0781942
0.0685188
0.0588032
0.0490534
0.0392754
0.029475
0.0196583
0.00983117
0
0
0.0102788
0.0205497
0.0308067
0.0410438
0.0512547
0.0614335
0.071574
0.0816702
0.0917161
0.101706
0.111633
0.121492
0.131277
0.140982
0.150601
0.160129
0.169559
0.178887
0.188107
0.197212
0.206198
0.21506
0.223792
0.232388
0.240844
0.249154
0.257314
0.265319
0.273164
0.280844
0.288355
0.295691
0.30285
0.309826
0.316615
0.323213
0.329617
0.335822
0.341825
0.347622
0.353209
0.358584
0.363743
0.368683
0.373401
0.377894
0.382159
0.386195
0.389998
0.393566
0.396897
0.39999
0.402841
0.405451
0.407816
0.409936
0.411809
0.413434
0.414811
0.415938
0.416815
0.417441
0.417815
0.417926
0.417877
0.417478
0.416833
0.415937
0.414792
0.413397
0.411753
0.409861
0.407723
0.40534
0.402713
0.399844
0.396734
0.393385
0.3898
0.38598
0.381928
0.377647
0.373138
0.368404
0.363449
0.358276
0.352887
0.347285
0.341475
0.335459
0.329242
0.322826
0.316217
0.309417
0.302431
0.295263
0.287918
0.280399
0.272712
0.264861
0.256851
0.248687
0.240373
0.231915
0.223318
0.214586
0.205726
0.196743
0.187642
0.178428
0.169107
0.159686
0.150169
0.140562
0.130871
0.121103
0.111262
0.101356
0.0913894
0.081369
0.0713007
0.0611907
0.0510451
0.04087
0.0306718
0.0204565
0.0102303
0
0
0.0106736
0.021339
0.0319901
0.0426203
0.0532235
0.0637933
0.0743233
0.0848073
0.0952391
0.105612
0.115921
0.126159
0.136319
0.146397
0.156386
0.16628
0.176073
0.185759
0.195332
0.204788
0.214119
0.223321
0.232388
0.241314
0.250095
0.258725
0.267198
0.275511
0.283657
0.291632
0.299431
0.307049
0.314483
0.321727
0.328777
0.335629
0.342278
0.348722
0.354955
0.360975
0.366777
0.372358
0.377715
0.382845
0.387744
0.39241
0.396839
0.401029
0.404978
0.408684
0.412143
0.415354
0.418316
0.421025
0.423481
0.425682
0.427627
0.429315
0.430745
0.431915
0.432825
0.433475
0.433865
0.433979
0.433928
0.433514
0.432844
0.431914
0.430725
0.429276
0.427569
0.425605
0.423385
0.42091
0.418182
0.415202
0.411973
0.408496
0.404773
0.400807
0.396599
0.392153
0.387471
0.382556
0.37741
0.372038
0.366442
0.360625
0.354592
0.348345
0.341889
0.335227
0.328363
0.321302
0.314048
0.306605
0.298977
0.29117
0.283188
0.275035
0.266718
0.25824
0.249606
0.240823
0.231896
0.222829
0.213629
0.2043
0.194849
0.185282
0.175603
0.16582
0.155937
0.145961
0.135898
0.125755
0.115536
0.105249
0.0948999
0.0844946
0.0740395
0.0635412
0.0530058
0.04244
0.0318499
0.0212422
0.0106233
0
0
0.011062
0.0221155
0.0331541
0.0441712
0.0551602
0.0661145
0.0770277
0.0878932
0.0987045
0.109455
0.120139
0.130749
0.14128
0.151724
0.162076
0.17233
0.182479
0.192518
0.20244
0.212239
0.22191
0.231447
0.240844
0.250095
0.259195
0.268139
0.276921
0.285536
0.293978
0.302243
0.310326
0.318222
0.325926
0.333434
0.34074
0.347841
0.354733
0.361411
0.367871
0.37411
0.380123
0.385907
0.391459
0.396776
0.401853
0.406688
0.411279
0.415622
0.419715
0.423555
0.42714
0.430468
0.433537
0.436345
0.43889
0.441172
0.443188
0.444937
0.446418
0.447631
0.448575
0.449248
0.449652
0.449771
0.449718
0.449288
0.448594
0.44763
0.446398
0.444896
0.443127
0.441092
0.438791
0.436226
0.433399
0.430311
0.426964
0.42336
0.419502
0.415391
0.41103
0.406422
0.40157
0.396476
0.391143
0.385576
0.379776
0.373748
0.367495
0.36102
0.354329
0.347425
0.340311
0.332993
0.325475
0.317761
0.309856